MODEL 1
REMARK VINA RESULT:    -7.151      0.000      0.000
REMARK INTER + INTRA:          -8.256
REMARK INTER:                  -7.987
REMARK INTRA:                  -0.269
REMARK UNBOUND:                -0.269
REMARK  Name = 5281607
REMARK  3 active torsions:
REMARK  status: ('A' for Active; 'I' for Inactive)
REMARK    1  A    between atoms: O_2  and  C_10
REMARK    2  A    between atoms: O_4  and  C_13
REMARK    3  A    between atoms: C_7  and  C_9
REMARK                            x       y       z     vdW  Elec       q    Type
REMARK                         _______ _______ _______ _____ _____    ______ ____
ROOT
ATOM      1  O   UNL     1       3.636  13.932   3.162  0.00  0.00    -0.454 OA
ATOM      2  O   UNL     1       0.076  13.322   5.040  0.00  0.00    -0.287 OA
ATOM      3  C   UNL     1       1.485  14.854   3.846  0.00  0.00    +0.105 A 
ATOM      4  C   UNL     1       2.737  14.970   3.233  0.00  0.00    +0.146 A 
ATOM      5  C   UNL     1       3.254  12.704   3.661  0.00  0.00    +0.139 A 
ATOM      6  C   UNL     1       1.117  13.549   4.437  0.00  0.00    +0.197 A 
ATOM      7  C   UNL     1       0.626  15.967   3.865  0.00  0.00    +0.135 A 
ATOM      8  C   UNL     1       2.088  12.456   4.267  0.00  0.00    +0.098 A 
ATOM      9  C   UNL     1       3.132  16.177   2.651  0.00  0.00    +0.092 A 
ATOM     10  C   UNL     1       2.261  17.264   2.669  0.00  0.00    +0.124 A 
ATOM     11  C   UNL     1       1.013  17.171   3.272  0.00  0.00    +0.091 A 
ENDROOT
BRANCH   5  12
ATOM     12  C   UNL     1       4.254  11.647   3.497  0.00  0.00    +0.017 A 
ATOM     13  C   UNL     1       4.015  10.567   2.638  0.00  0.00    +0.011 A 
ATOM     14  C   UNL     1       5.473  11.723   4.183  0.00  0.00    +0.011 A 
ATOM     15  C   UNL     1       5.001   9.600   2.435  0.00  0.00    +0.001 A 
ATOM     16  C   UNL     1       6.461  10.762   3.969  0.00  0.00    +0.001 A 
ATOM     17  C   UNL     1       6.228   9.705   3.088  0.00  0.00    +0.000 A 
ENDBRANCH   5  12
BRANCH   7  18
ATOM     18  O   UNL     1      -0.603  15.886   4.452  0.00  0.00    -0.506 OA
ATOM     19  H   UNL     1      -0.550  15.438   5.309  0.00  0.00    +0.292 HD
ENDBRANCH   7  18
BRANCH  10  20
ATOM     20  O   UNL     1       2.677  18.417   2.072  0.00  0.00    -0.507 OA
ATOM     21  H   UNL     1       3.399  18.218   1.452  0.00  0.00    +0.292 HD
ENDBRANCH  10  20
TORSDOF 3
ENDMDL
MODEL 2
REMARK VINA RESULT:    -7.093     13.666     16.127
REMARK INTER + INTRA:          -8.192
REMARK INTER:                  -7.879
REMARK INTRA:                  -0.313
REMARK UNBOUND:                -0.269
REMARK  Name = 5281607
REMARK  3 active torsions:
REMARK  status: ('A' for Active; 'I' for Inactive)
REMARK    1  A    between atoms: O_2  and  C_10
REMARK    2  A    between atoms: O_4  and  C_13
REMARK    3  A    between atoms: C_7  and  C_9
REMARK                            x       y       z     vdW  Elec       q    Type
REMARK                         _______ _______ _______ _____ _____    ______ ____
ROOT
ATOM      1  O   UNL     1      -2.116   3.411  12.806  0.00  0.00    -0.454 OA
ATOM      2  O   UNL     1      -5.230   1.829  10.716  0.00  0.00    -0.287 OA
ATOM      3  C   UNL     1      -3.324   1.410  12.112  0.00  0.00    +0.105 A 
ATOM      4  C   UNL     1      -2.279   2.046  12.790  0.00  0.00    +0.146 A 
ATOM      5  C   UNL     1      -3.067   4.187  12.178  0.00  0.00    +0.139 A 
ATOM      6  C   UNL     1      -4.297   2.254  11.386  0.00  0.00    +0.197 A 
ATOM      7  C   UNL     1      -3.416   0.008  12.157  0.00  0.00    +0.135 A 
ATOM      8  C   UNL     1      -4.115   3.710  11.498  0.00  0.00    +0.098 A 
ATOM      9  C   UNL     1      -1.336   1.299  13.500  0.00  0.00    +0.092 A 
ATOM     10  C   UNL     1      -1.453  -0.089  13.543  0.00  0.00    +0.124 A 
ATOM     11  C   UNL     1      -2.483  -0.742  12.876  0.00  0.00    +0.091 A 
ENDROOT
BRANCH   5  12
ATOM     12  C   UNL     1      -2.840   5.630  12.289  0.00  0.00    +0.017 A 
ATOM     13  C   UNL     1      -3.573   6.529  11.504  0.00  0.00    +0.011 A 
ATOM     14  C   UNL     1      -1.904   6.123  13.207  0.00  0.00    +0.011 A 
ATOM     15  C   UNL     1      -3.400   7.906  11.666  0.00  0.00    +0.001 A 
ATOM     16  C   UNL     1      -1.741   7.499  13.375  0.00  0.00    +0.001 A 
ATOM     17  C   UNL     1      -2.496   8.389  12.611  0.00  0.00    +0.000 A 
ENDBRANCH   5  12
BRANCH   7  18
ATOM     18  O   UNL     1      -4.425  -0.643  11.508  0.00  0.00    -0.506 OA
ATOM     19  H   UNL     1      -4.411  -1.591  11.707  0.00  0.00    +0.292 HD
ENDBRANCH   7  18
BRANCH  10  20
ATOM     20  O   UNL     1      -0.524  -0.780  14.263  0.00  0.00    -0.507 OA
ATOM     21  H   UNL     1      -0.688  -0.650  15.212  0.00  0.00    +0.292 HD
ENDBRANCH  10  20
TORSDOF 3
ENDMDL
MODEL 3
REMARK VINA RESULT:    -6.837     12.818     14.384
REMARK INTER + INTRA:          -7.906
REMARK INTER:                  -7.592
REMARK INTRA:                  -0.314
REMARK UNBOUND:                -0.269
REMARK  Name = 5281607
REMARK  3 active torsions:
REMARK  status: ('A' for Active; 'I' for Inactive)
REMARK    1  A    between atoms: O_2  and  C_10
REMARK    2  A    between atoms: O_4  and  C_13
REMARK    3  A    between atoms: C_7  and  C_9
REMARK                            x       y       z     vdW  Elec       q    Type
REMARK                         _______ _______ _______ _____ _____    ______ ____
ROOT
ATOM      1  O   UNL     1      -2.357   4.348  13.049  0.00  0.00    -0.454 OA
ATOM      2  O   UNL     1      -5.076   4.617  10.031  0.00  0.00    -0.287 OA
ATOM      3  C   UNL     1      -3.601   5.784  11.521  0.00  0.00    +0.105 A 
ATOM      4  C   UNL     1      -2.688   5.591  12.563  0.00  0.00    +0.146 A 
ATOM      5  C   UNL     1      -2.904   3.241  12.434  0.00  0.00    +0.139 A 
ATOM      6  C   UNL     1      -4.230   4.590  10.917  0.00  0.00    +0.197 A 
ATOM      7  C   UNL     1      -3.873   7.092  11.083  0.00  0.00    +0.135 A 
ATOM      8  C   UNL     1      -3.784   3.284  11.428  0.00  0.00    +0.098 A 
ATOM      9  C   UNL     1      -2.056   6.682  13.164  0.00  0.00    +0.092 A 
ATOM     10  C   UNL     1      -2.330   7.969  12.706  0.00  0.00    +0.124 A 
ATOM     11  C   UNL     1      -3.234   8.185  11.673  0.00  0.00    +0.091 A 
ENDROOT
BRANCH   5  12
ATOM     12  C   UNL     1      -2.457   1.960  12.984  0.00  0.00    +0.017 A 
ATOM     13  C   UNL     1      -1.610   1.919  14.099  0.00  0.00    +0.011 A 
ATOM     14  C   UNL     1      -2.898   0.759  12.412  0.00  0.00    +0.011 A 
ATOM     15  C   UNL     1      -1.245   0.693  14.659  0.00  0.00    +0.001 A 
ATOM     16  C   UNL     1      -2.542  -0.464  12.981  0.00  0.00    +0.001 A 
ATOM     17  C   UNL     1      -1.722  -0.496  14.110  0.00  0.00    +0.000 A 
ENDBRANCH   5  12
BRANCH   7  18
ATOM     18  O   UNL     1      -4.756   7.315  10.067  0.00  0.00    -0.506 OA
ATOM     19  H   UNL     1      -4.549   8.139   9.601  0.00  0.00    +0.292 HD
ENDBRANCH   7  18
BRANCH  10  20
ATOM     20  O   UNL     1      -1.678   9.006  13.307  0.00  0.00    -0.507 OA
ATOM     21  H   UNL     1      -2.136   9.242  14.131  0.00  0.00    +0.292 HD
ENDBRANCH  10  20
TORSDOF 3
ENDMDL
MODEL 4
REMARK VINA RESULT:    -6.753     13.627     16.089
REMARK INTER + INTRA:          -7.811
REMARK INTER:                  -7.497
REMARK INTRA:                  -0.314
REMARK UNBOUND:                -0.269
REMARK  Name = 5281607
REMARK  3 active torsions:
REMARK  status: ('A' for Active; 'I' for Inactive)
REMARK    1  A    between atoms: O_2  and  C_10
REMARK    2  A    between atoms: O_4  and  C_13
REMARK    3  A    between atoms: C_7  and  C_9
REMARK                            x       y       z     vdW  Elec       q    Type
REMARK                         _______ _______ _______ _____ _____    ______ ____
ROOT
ATOM      1  O   UNL     1      -3.736   3.504  11.587  0.00  0.00    -0.454 OA
ATOM      2  O   UNL     1      -1.406   1.469  14.233  0.00  0.00    -0.287 OA
ATOM      3  C   UNL     1      -3.009   1.343  12.452  0.00  0.00    +0.105 A 
ATOM      4  C   UNL     1      -3.780   2.129  11.590  0.00  0.00    +0.146 A 
ATOM      5  C   UNL     1      -2.839   4.128  12.428  0.00  0.00    +0.139 A 
ATOM      6  C   UNL     1      -2.102   2.031  13.396  0.00  0.00    +0.197 A 
ATOM      7  C   UNL     1      -3.114  -0.057  12.380  0.00  0.00    +0.135 A 
ATOM      8  C   UNL     1      -2.042   3.498  13.298  0.00  0.00    +0.098 A 
ATOM      9  C   UNL     1      -4.648   1.533  10.672  0.00  0.00    +0.092 A 
ATOM     10  C   UNL     1      -4.728   0.143  10.608  0.00  0.00    +0.124 A 
ATOM     11  C   UNL     1      -3.971  -0.657  11.455  0.00  0.00    +0.091 A 
ENDROOT
BRANCH   5  12
ATOM     12  C   UNL     1      -2.824   5.589  12.321  0.00  0.00    +0.017 A 
ATOM     13  C   UNL     1      -3.649   6.244  11.398  0.00  0.00    +0.011 A 
ATOM     14  C   UNL     1      -2.000   6.345  13.165  0.00  0.00    +0.011 A 
ATOM     15  C   UNL     1      -3.679   7.639  11.350  0.00  0.00    +0.001 A 
ATOM     16  C   UNL     1      -2.041   7.739  13.123  0.00  0.00    +0.001 A 
ATOM     17  C   UNL     1      -2.888   8.385  12.222  0.00  0.00    +0.000 A 
ENDBRANCH   5  12
BRANCH   7  18
ATOM     18  O   UNL     1      -2.373  -0.853  13.205  0.00  0.00    -0.506 OA
ATOM     19  H   UNL     1      -2.944  -1.399  13.765  0.00  0.00    +0.292 HD
ENDBRANCH   7  18
BRANCH  10  20
ATOM     20  O   UNL     1      -5.571  -0.400   9.684  0.00  0.00    -0.507 OA
ATOM     21  H   UNL     1      -6.478  -0.401  10.035  0.00  0.00    +0.292 HD
ENDBRANCH  10  20
TORSDOF 3
ENDMDL
MODEL 5
REMARK VINA RESULT:    -6.740      1.137      2.726
REMARK INTER + INTRA:          -7.797
REMARK INTER:                  -7.509
REMARK INTRA:                  -0.288
REMARK UNBOUND:                -0.269
REMARK  Name = 5281607
REMARK  3 active torsions:
REMARK  status: ('A' for Active; 'I' for Inactive)
REMARK    1  A    between atoms: O_2  and  C_10
REMARK    2  A    between atoms: O_4  and  C_13
REMARK    3  A    between atoms: C_7  and  C_9
REMARK                            x       y       z     vdW  Elec       q    Type
REMARK                         _______ _______ _______ _____ _____    ______ ____
ROOT
ATOM      1  O   UNL     1       2.521  13.132   3.410  0.00  0.00    -0.454 OA
ATOM      2  O   UNL     1       4.392  16.702   2.837  0.00  0.00    -0.287 OA
ATOM      3  C   UNL     1       2.335  15.561   3.312  0.00  0.00    +0.105 A 
ATOM      4  C   UNL     1       1.781  14.289   3.483  0.00  0.00    +0.146 A 
ATOM      5  C   UNL     1       3.884  13.242   3.226  0.00  0.00    +0.139 A 
ATOM      6  C   UNL     1       3.787  15.658   3.048  0.00  0.00    +0.197 A 
ATOM      7  C   UNL     1       1.502  16.690   3.412  0.00  0.00    +0.135 A 
ATOM      8  C   UNL     1       4.541  14.394   3.053  0.00  0.00    +0.098 A 
ATOM      9  C   UNL     1       0.416  14.138   3.744  0.00  0.00    +0.092 A 
ATOM     10  C   UNL     1      -0.389  15.270   3.851  0.00  0.00    +0.124 A 
ATOM     11  C   UNL     1       0.140  16.544   3.685  0.00  0.00    +0.091 A 
ENDROOT
BRANCH   5  12
ATOM     12  C   UNL     1       4.598  11.963   3.212  0.00  0.00    +0.017 A 
ATOM     13  C   UNL     1       4.144  10.902   2.419  0.00  0.00    +0.011 A 
ATOM     14  C   UNL     1       5.762  11.802   3.976  0.00  0.00    +0.011 A 
ATOM     15  C   UNL     1       4.869   9.710   2.359  0.00  0.00    +0.001 A 
ATOM     16  C   UNL     1       6.491  10.615   3.904  0.00  0.00    +0.001 A 
ATOM     17  C   UNL     1       6.049   9.573   3.088  0.00  0.00    +0.000 A 
ENDBRANCH   5  12
BRANCH   7  18
ATOM     18  O   UNL     1       2.012  17.946   3.253  0.00  0.00    -0.506 OA
ATOM     19  H   UNL     1       2.466  18.032   2.401  0.00  0.00    +0.292 HD
ENDBRANCH   7  18
BRANCH  10  20
ATOM     20  O   UNL     1      -1.711  15.081   4.126  0.00  0.00    -0.507 OA
ATOM     21  H   UNL     1      -1.892  14.129   4.205  0.00  0.00    +0.292 HD
ENDBRANCH  10  20
TORSDOF 3
ENDMDL
MODEL 6
REMARK VINA RESULT:    -6.570      4.521      6.731
REMARK INTER + INTRA:          -7.608
REMARK INTER:                  -7.345
REMARK INTRA:                  -0.262
REMARK UNBOUND:                -0.269
REMARK  Name = 5281607
REMARK  3 active torsions:
REMARK  status: ('A' for Active; 'I' for Inactive)
REMARK    1  A    between atoms: O_2  and  C_10
REMARK    2  A    between atoms: O_4  and  C_13
REMARK    3  A    between atoms: C_7  and  C_9
REMARK                            x       y       z     vdW  Elec       q    Type
REMARK                         _______ _______ _______ _____ _____    ______ ____
ROOT
ATOM      1  O   UNL     1       7.118  11.994   1.296  0.00  0.00    -0.454 OA
ATOM      2  O   UNL     1       3.459  12.182  -0.479  0.00  0.00    -0.287 OA
ATOM      3  C   UNL     1       5.794  11.689  -0.729  0.00  0.00    +0.105 A 
ATOM      4  C   UNL     1       7.008  11.666  -0.035  0.00  0.00    +0.146 A 
ATOM      5  C   UNL     1       5.963  12.294   1.990  0.00  0.00    +0.139 A 
ATOM      6  C   UNL     1       4.575  12.078   0.013  0.00  0.00    +0.197 A 
ATOM      7  C   UNL     1       5.775  11.330  -2.088  0.00  0.00    +0.135 A 
ATOM      8  C   UNL     1       4.741  12.348   1.451  0.00  0.00    +0.098 A 
ATOM      9  C   UNL     1       8.189  11.297  -0.684  0.00  0.00    +0.092 A 
ATOM     10  C   UNL     1       8.147  10.933  -2.028  0.00  0.00    +0.124 A 
ATOM     11  C   UNL     1       6.951  10.948  -2.737  0.00  0.00    +0.091 A 
ENDROOT
BRANCH   5  12
ATOM     12  C   UNL     1       6.169  12.580   3.411  0.00  0.00    +0.017 A 
ATOM     13  C   UNL     1       6.225  11.541   4.348  0.00  0.00    +0.011 A 
ATOM     14  C   UNL     1       6.340  13.903   3.842  0.00  0.00    +0.011 A 
ATOM     15  C   UNL     1       6.490  11.818   5.690  0.00  0.00    +0.001 A 
ATOM     16  C   UNL     1       6.616  14.176   5.181  0.00  0.00    +0.001 A 
ATOM     17  C   UNL     1       6.700  13.132   6.103  0.00  0.00    +0.000 A 
ENDBRANCH   5  12
BRANCH   7  18
ATOM     18  O   UNL     1       4.606  11.338  -2.793  0.00  0.00    -0.506 OA
ATOM     19  H   UNL     1       4.381  12.236  -3.081  0.00  0.00    +0.292 HD
ENDBRANCH   7  18
BRANCH  10  20
ATOM     20  O   UNL     1       9.318  10.560  -2.619  0.00  0.00    -0.507 OA
ATOM     21  H   UNL     1       9.930  11.315  -2.628  0.00  0.00    +0.292 HD
ENDBRANCH  10  20
TORSDOF 3
ENDMDL
MODEL 7
REMARK VINA RESULT:    -6.491      8.191     10.836
REMARK INTER + INTRA:          -7.519
REMARK INTER:                  -7.256
REMARK INTRA:                  -0.263
REMARK UNBOUND:                -0.269
REMARK  Name = 5281607
REMARK  3 active torsions:
REMARK  status: ('A' for Active; 'I' for Inactive)
REMARK    1  A    between atoms: O_2  and  C_10
REMARK    2  A    between atoms: O_4  and  C_13
REMARK    3  A    between atoms: C_7  and  C_9
REMARK                            x       y       z     vdW  Elec       q    Type
REMARK                         _______ _______ _______ _____ _____    ______ ____
ROOT
ATOM      1  O   UNL     1      -2.208   8.485   8.805  0.00  0.00    -0.454 OA
ATOM      2  O   UNL     1      -0.803   4.717   8.168  0.00  0.00    -0.287 OA
ATOM      3  C   UNL     1      -1.434   6.386   9.774  0.00  0.00    +0.105 A 
ATOM      4  C   UNL     1      -1.910   7.695   9.890  0.00  0.00    +0.146 A 
ATOM      5  C   UNL     1      -2.093   7.931   7.546  0.00  0.00    +0.139 A 
ATOM      6  C   UNL     1      -1.252   5.830   8.416  0.00  0.00    +0.197 A 
ATOM      7  C   UNL     1      -1.163   5.649  10.940  0.00  0.00    +0.135 A 
ATOM      8  C   UNL     1      -1.655   6.693   7.294  0.00  0.00    +0.098 A 
ATOM      9  C   UNL     1      -2.110   8.268  11.149  0.00  0.00    +0.092 A 
ATOM     10  C   UNL     1      -1.847   7.517  12.293  0.00  0.00    +0.124 A 
ATOM     11  C   UNL     1      -1.374   6.214  12.200  0.00  0.00    +0.091 A 
ENDROOT
BRANCH   5  12
ATOM     12  C   UNL     1      -2.479   8.827   6.454  0.00  0.00    +0.017 A 
ATOM     13  C   UNL     1      -3.747   8.730   5.866  0.00  0.00    +0.011 A 
ATOM     14  C   UNL     1      -1.587   9.810   6.005  0.00  0.00    +0.011 A 
ATOM     15  C   UNL     1      -4.131   9.633   4.873  0.00  0.00    +0.001 A 
ATOM     16  C   UNL     1      -1.978  10.718   5.021  0.00  0.00    +0.001 A 
ATOM     17  C   UNL     1      -3.253  10.634   4.462  0.00  0.00    +0.000 A 
ENDBRANCH   5  12
BRANCH   7  18
ATOM     18  O   UNL     1      -0.701   4.367  10.861  0.00  0.00    -0.506 OA
ATOM     19  H   UNL     1      -1.095   3.813  11.551  0.00  0.00    +0.292 HD
ENDBRANCH   7  18
BRANCH  10  20
ATOM     20  O   UNL     1      -2.074   8.106  13.502  0.00  0.00    -0.507 OA
ATOM     21  H   UNL     1      -1.627   8.968  13.530  0.00  0.00    +0.292 HD
ENDBRANCH  10  20
TORSDOF 3
ENDMDL
MODEL 8
REMARK VINA RESULT:    -6.453      6.783      9.847
REMARK INTER + INTRA:          -7.476
REMARK INTER:                  -7.185
REMARK INTRA:                  -0.291
REMARK UNBOUND:                -0.269
REMARK  Name = 5281607
REMARK  3 active torsions:
REMARK  status: ('A' for Active; 'I' for Inactive)
REMARK    1  A    between atoms: O_2  and  C_10
REMARK    2  A    between atoms: O_4  and  C_13
REMARK    3  A    between atoms: C_7  and  C_9
REMARK                            x       y       z     vdW  Elec       q    Type
REMARK                         _______ _______ _______ _____ _____    ______ ____
ROOT
ATOM      1  O   UNL     1      -1.105   9.267   8.093  0.00  0.00    -0.454 OA
ATOM      2  O   UNL     1      -2.519   6.324   5.661  0.00  0.00    -0.287 OA
ATOM      3  C   UNL     1      -1.621   6.900   7.810  0.00  0.00    +0.105 A 
ATOM      4  C   UNL     1      -1.142   7.976   8.565  0.00  0.00    +0.146 A 
ATOM      5  C   UNL     1      -1.627   9.517   6.841  0.00  0.00    +0.139 A 
ATOM      6  C   UNL     1      -2.115   7.175   6.443  0.00  0.00    +0.197 A 
ATOM      7  C   UNL     1      -1.628   5.614   8.378  0.00  0.00    +0.135 A 
ATOM      8  C   UNL     1      -2.119   8.584   6.018  0.00  0.00    +0.098 A 
ATOM      9  C   UNL     1      -0.671   7.776   9.865  0.00  0.00    +0.092 A 
ATOM     10  C   UNL     1      -0.699   6.495  10.414  0.00  0.00    +0.124 A 
ATOM     11  C   UNL     1      -1.170   5.413   9.682  0.00  0.00    +0.091 A 
ENDROOT
BRANCH   5  12
ATOM     12  C   UNL     1      -1.593  10.926   6.441  0.00  0.00    +0.017 A 
ATOM     13  C   UNL     1      -0.435  11.691   6.626  0.00  0.00    +0.011 A 
ATOM     14  C   UNL     1      -2.715  11.511   5.842  0.00  0.00    +0.011 A 
ATOM     15  C   UNL     1      -0.388  13.013   6.179  0.00  0.00    +0.001 A 
ATOM     16  C   UNL     1      -2.662  12.829   5.385  0.00  0.00    +0.001 A 
ATOM     17  C   UNL     1      -1.495  13.576   5.546  0.00  0.00    +0.000 A 
ENDBRANCH   5  12
BRANCH   7  18
ATOM     18  O   UNL     1      -2.091   4.544   7.669  0.00  0.00    -0.506 OA
ATOM     19  H   UNL     1      -2.724   4.029   8.192  0.00  0.00    +0.292 HD
ENDBRANCH   7  18
BRANCH  10  20
ATOM     20  O   UNL     1      -0.249   6.346  11.693  0.00  0.00    -0.507 OA
ATOM     21  H   UNL     1      -0.918   5.875  12.218  0.00  0.00    +0.292 HD
ENDBRANCH  10  20
TORSDOF 3
ENDMDL
MODEL 9
REMARK VINA RESULT:    -6.278      8.559     10.346
REMARK INTER + INTRA:          -7.282
REMARK INTER:                  -7.011
REMARK INTRA:                  -0.270
REMARK UNBOUND:                -0.269
REMARK  Name = 5281607
REMARK  3 active torsions:
REMARK  status: ('A' for Active; 'I' for Inactive)
REMARK    1  A    between atoms: O_2  and  C_10
REMARK    2  A    between atoms: O_4  and  C_13
REMARK    3  A    between atoms: C_7  and  C_9
REMARK                            x       y       z     vdW  Elec       q    Type
REMARK                         _______ _______ _______ _____ _____    ______ ____
ROOT
ATOM      1  O   UNL     1      -2.655   8.360   9.120  0.00  0.00    -0.454 OA
ATOM      2  O   UNL     1      -5.562  11.049  10.067  0.00  0.00    -0.287 OA
ATOM      3  C   UNL     1      -3.989  10.280   8.426  0.00  0.00    +0.105 A 
ATOM      4  C   UNL     1      -2.996   9.322   8.198  0.00  0.00    +0.146 A 
ATOM      5  C   UNL     1      -3.375   8.302  10.295  0.00  0.00    +0.139 A 
ATOM      6  C   UNL     1      -4.705  10.246   9.720  0.00  0.00    +0.197 A 
ATOM      7  C   UNL     1      -4.276  11.222   7.422  0.00  0.00    +0.135 A 
ATOM      8  C   UNL     1      -4.349   9.151  10.638  0.00  0.00    +0.098 A 
ATOM      9  C   UNL     1      -2.294   9.302   6.990  0.00  0.00    +0.092 A 
ATOM     10  C   UNL     1      -2.603  10.236   6.003  0.00  0.00    +0.124 A 
ATOM     11  C   UNL     1      -3.585  11.197   6.209  0.00  0.00    +0.091 A 
ENDROOT
BRANCH   5  12
ATOM     12  C   UNL     1      -2.978   7.216  11.195  0.00  0.00    +0.017 A 
ATOM     13  C   UNL     1      -2.223   7.482  12.343  0.00  0.00    +0.011 A 
ATOM     14  C   UNL     1      -3.377   5.901  10.923  0.00  0.00    +0.011 A 
ATOM     15  C   UNL     1      -1.907   6.452  13.231  0.00  0.00    +0.001 A 
ATOM     16  C   UNL     1      -3.070   4.875  11.818  0.00  0.00    +0.001 A 
ATOM     17  C   UNL     1      -2.344   5.153  12.976  0.00  0.00    +0.000 A 
ENDBRANCH   5  12
BRANCH   7  18
ATOM     18  O   UNL     1      -5.241  12.168   7.612  0.00  0.00    -0.506 OA
ATOM     19  H   UNL     1      -5.983  11.809   8.121  0.00  0.00    +0.292 HD
ENDBRANCH   7  18
BRANCH  10  20
ATOM     20  O   UNL     1      -1.909  10.169   4.831  0.00  0.00    -0.507 OA
ATOM     21  H   UNL     1      -1.999   9.279   4.452  0.00  0.00    +0.292 HD
ENDBRANCH  10  20
TORSDOF 3
ENDMDL
