MODEL 1
REMARK VINA RESULT:    -8.827      0.000      0.000
REMARK INTER + INTRA:         -10.500
REMARK INTER:                 -10.375
REMARK INTRA:                  -0.125
REMARK UNBOUND:                -0.125
REMARK  Name = 440832
REMARK  5 active torsions:
REMARK  status: ('A' for Active; 'I' for Inactive)
REMARK    1  A    between atoms: O_2  and  C_11
REMARK    2  A    between atoms: O_3  and  C_12
REMARK    3  A    between atoms: O_4  and  C_14
REMARK    4  A    between atoms: O_5  and  C_20
REMARK    5  A    between atoms: C_8  and  C_9
REMARK                            x       y       z     vdW  Elec       q    Type
REMARK                         _______ _______ _______ _____ _____    ______ ____
ROOT
ATOM      1  O   UNL     1      34.512  37.054  18.523  0.00  0.00    -0.451 OA
ATOM      2  C   UNL     1      35.790  35.851  16.957  0.00  0.00    +0.062 A 
ATOM      3  C   UNL     1      34.591  36.418  17.435  0.00  0.00    +0.143 A 
ATOM      4  C   UNL     1      35.546  37.297  19.217  0.00  0.00    +0.177 A 
ATOM      5  C   UNL     1      36.936  36.021  17.715  0.00  0.00    +0.064 A 
ATOM      6  C   UNL     1      36.811  36.761  18.865  0.00  0.00    +0.160 A 
ATOM      7  C   UNL     1      35.773  35.146  15.737  0.00  0.00    +0.131 A 
ATOM      8  C   UNL     1      33.419  36.272  16.697  0.00  0.00    +0.092 A 
ATOM      9  C   UNL     1      33.431  35.574  15.493  0.00  0.00    +0.124 A 
ATOM     10  C   UNL     1      34.601  35.004  15.001  0.00  0.00    +0.091 A 
ENDROOT
BRANCH   4  11
ATOM     11  C   UNL     1      35.301  38.159  20.396  0.00  0.00    +0.021 A 
ATOM     12  C   UNL     1      34.652  39.404  20.252  0.00  0.00    +0.015 A 
ATOM     13  C   UNL     1      35.720  37.798  21.691  0.00  0.00    +0.015 A 
ATOM     14  C   UNL     1      34.411  40.235  21.355  0.00  0.00    +0.046 A 
ATOM     15  C   UNL     1      35.482  38.625  22.793  0.00  0.00    +0.046 A 
ATOM     16  C   UNL     1      34.830  39.836  22.617  0.00  0.00    +0.117 A 
BRANCH  16  17
ATOM     17  O   UNL     1      34.631  40.605  23.722  0.00  0.00    -0.507 OA
ATOM     18  H   UNL     1      34.900  41.521  23.538  0.00  0.00    +0.292 HD
ENDBRANCH  16  17
ENDBRANCH   4  11
BRANCH   6  19
ATOM     19  O   UNL     1      37.916  36.952  19.650  0.00  0.00    -0.503 OA
ATOM     20  H   UNL     1      38.510  37.632  19.279  0.00  0.00    +0.292 HD
ENDBRANCH   6  19
BRANCH   7  21
ATOM     21  O   UNL     1      36.942  34.600  15.286  0.00  0.00    -0.506 OA
ATOM     22  H   UNL     1      36.863  33.633  15.196  0.00  0.00    +0.292 HD
ENDBRANCH   7  21
BRANCH   9  23
ATOM     23  O   UNL     1      32.253  35.471  14.819  0.00  0.00    -0.507 OA
ATOM     24  H   UNL     1      31.970  34.541  14.741  0.00  0.00    +0.292 HD
ENDBRANCH   9  23
TORSDOF 5
ENDMDL
MODEL 2
REMARK VINA RESULT:    -7.957      2.396      6.968
REMARK INTER + INTRA:          -9.478
REMARK INTER:                  -9.151
REMARK INTRA:                  -0.327
REMARK UNBOUND:                -0.125
REMARK  Name = 440832
REMARK  5 active torsions:
REMARK  status: ('A' for Active; 'I' for Inactive)
REMARK    1  A    between atoms: O_2  and  C_11
REMARK    2  A    between atoms: O_3  and  C_12
REMARK    3  A    between atoms: O_4  and  C_14
REMARK    4  A    between atoms: O_5  and  C_20
REMARK    5  A    between atoms: C_8  and  C_9
REMARK                            x       y       z     vdW  Elec       q    Type
REMARK                         _______ _______ _______ _____ _____    ______ ____
ROOT
ATOM      1  O   UNL     1      34.662  37.158  21.608  0.00  0.00    -0.451 OA
ATOM      2  C   UNL     1      33.714  38.797  23.001  0.00  0.00    +0.062 A 
ATOM      3  C   UNL     1      34.088  37.476  22.687  0.00  0.00    +0.143 A 
ATOM      4  C   UNL     1      35.019  38.041  20.770  0.00  0.00    +0.177 A 
ATOM      5  C   UNL     1      34.011  39.793  22.085  0.00  0.00    +0.064 A 
ATOM      6  C   UNL     1      34.679  39.405  20.950  0.00  0.00    +0.160 A 
ATOM      7  C   UNL     1      33.064  39.050  24.226  0.00  0.00    +0.131 A 
ATOM      8  C   UNL     1      33.811  36.449  23.587  0.00  0.00    +0.092 A 
ATOM      9  C   UNL     1      33.170  36.728  24.791  0.00  0.00    +0.124 A 
ATOM     10  C   UNL     1      32.790  38.023  25.124  0.00  0.00    +0.091 A 
ENDROOT
BRANCH   4  11
ATOM     11  C   UNL     1      35.790  37.514  19.620  0.00  0.00    +0.021 A 
ATOM     12  C   UNL     1      35.162  37.288  18.377  0.00  0.00    +0.015 A 
ATOM     13  C   UNL     1      37.159  37.194  19.717  0.00  0.00    +0.015 A 
ATOM     14  C   UNL     1      35.874  36.789  17.277  0.00  0.00    +0.046 A 
ATOM     15  C   UNL     1      37.871  36.697  18.622  0.00  0.00    +0.046 A 
ATOM     16  C   UNL     1      37.225  36.498  17.412  0.00  0.00    +0.117 A 
BRANCH  16  17
ATOM     17  O   UNL     1      37.964  36.005  16.382  0.00  0.00    -0.507 OA
ATOM     18  H   UNL     1      37.786  35.055  16.273  0.00  0.00    +0.292 HD
ENDBRANCH  16  17
ENDBRANCH   4  11
BRANCH   6  19
ATOM     19  O   UNL     1      34.990  40.353  20.012  0.00  0.00    -0.503 OA
ATOM     20  H   UNL     1      34.381  40.323  19.250  0.00  0.00    +0.292 HD
ENDBRANCH   6  19
BRANCH   7  21
ATOM     21  O   UNL     1      32.705  40.337  24.518  0.00  0.00    -0.506 OA
ATOM     22  H   UNL     1      31.768  40.496  24.299  0.00  0.00    +0.292 HD
ENDBRANCH   7  21
BRANCH   9  23
ATOM     23  O   UNL     1      32.932  35.681  25.627  0.00  0.00    -0.507 OA
ATOM     24  H   UNL     1      33.182  34.834  25.213  0.00  0.00    +0.292 HD
ENDBRANCH   9  23
TORSDOF 5
ENDMDL
MODEL 3
REMARK VINA RESULT:    -7.953      2.579      3.778
REMARK INTER + INTRA:          -9.473
REMARK INTER:                  -9.448
REMARK INTRA:                  -0.025
REMARK UNBOUND:                -0.125
REMARK  Name = 440832
REMARK  5 active torsions:
REMARK  status: ('A' for Active; 'I' for Inactive)
REMARK    1  A    between atoms: O_2  and  C_11
REMARK    2  A    between atoms: O_3  and  C_12
REMARK    3  A    between atoms: O_4  and  C_14
REMARK    4  A    between atoms: O_5  and  C_20
REMARK    5  A    between atoms: C_8  and  C_9
REMARK                            x       y       z     vdW  Elec       q    Type
REMARK                         _______ _______ _______ _____ _____    ______ ____
ROOT
ATOM      1  O   UNL     1      36.274  36.170  19.680  0.00  0.00    -0.451 OA
ATOM      2  C   UNL     1      35.813  35.343  17.527  0.00  0.00    +0.062 A 
ATOM      3  C   UNL     1      36.551  36.112  18.450  0.00  0.00    +0.143 A 
ATOM      4  C   UNL     1      35.349  35.457  20.178  0.00  0.00    +0.177 A 
ATOM      5  C   UNL     1      34.744  34.604  18.005  0.00  0.00    +0.064 A 
ATOM      6  C   UNL     1      34.511  34.661  19.357  0.00  0.00    +0.160 A 
ATOM      7  C   UNL     1      36.193  35.355  16.170  0.00  0.00    +0.131 A 
ATOM      8  C   UNL     1      37.637  36.863  18.006  0.00  0.00    +0.092 A 
ATOM      9  C   UNL     1      37.993  36.854  16.660  0.00  0.00    +0.124 A 
ATOM     10  C   UNL     1      37.280  36.105  15.731  0.00  0.00    +0.091 A 
ENDROOT
BRANCH   4  11
ATOM     11  C   UNL     1      35.236  35.549  21.652  0.00  0.00    +0.021 A 
ATOM     12  C   UNL     1      35.459  36.774  22.314  0.00  0.00    +0.015 A 
ATOM     13  C   UNL     1      34.930  34.430  22.453  0.00  0.00    +0.015 A 
ATOM     14  C   UNL     1      35.357  36.881  23.708  0.00  0.00    +0.046 A 
ATOM     15  C   UNL     1      34.829  34.534  23.843  0.00  0.00    +0.046 A 
ATOM     16  C   UNL     1      35.043  35.757  24.460  0.00  0.00    +0.117 A 
BRANCH  16  17
ATOM     17  O   UNL     1      34.938  35.800  25.816  0.00  0.00    -0.507 OA
ATOM     18  H   UNL     1      34.429  35.034  26.132  0.00  0.00    +0.292 HD
ENDBRANCH  16  17
ENDBRANCH   4  11
BRANCH   6  19
ATOM     19  O   UNL     1      33.462  33.950  19.876  0.00  0.00    -0.503 OA
ATOM     20  H   UNL     1      33.314  34.160  20.818  0.00  0.00    +0.292 HD
ENDBRANCH   6  19
BRANCH   7  21
ATOM     21  O   UNL     1      35.468  34.606  15.286  0.00  0.00    -0.506 OA
ATOM     22  H   UNL     1      35.852  34.655  14.391  0.00  0.00    +0.292 HD
ENDBRANCH   7  21
BRANCH   9  23
ATOM     23  O   UNL     1      39.065  37.607  16.293  0.00  0.00    -0.507 OA
ATOM     24  H   UNL     1      39.481  37.259  15.483  0.00  0.00    +0.292 HD
ENDBRANCH   9  23
TORSDOF 5
ENDMDL
MODEL 4
REMARK VINA RESULT:    -7.939      2.365      6.620
REMARK INTER + INTRA:          -9.456
REMARK INTER:                  -9.142
REMARK INTRA:                  -0.314
REMARK UNBOUND:                -0.125
REMARK  Name = 440832
REMARK  5 active torsions:
REMARK  status: ('A' for Active; 'I' for Inactive)
REMARK    1  A    between atoms: O_2  and  C_11
REMARK    2  A    between atoms: O_3  and  C_12
REMARK    3  A    between atoms: O_4  and  C_14
REMARK    4  A    between atoms: O_5  and  C_20
REMARK    5  A    between atoms: C_8  and  C_9
REMARK                            x       y       z     vdW  Elec       q    Type
REMARK                         _______ _______ _______ _____ _____    ______ ____
ROOT
ATOM      1  O   UNL     1      36.016  37.656  20.576  0.00  0.00    -0.451 OA
ATOM      2  C   UNL     1      34.772  36.488  22.193  0.00  0.00    +0.062 A 
ATOM      3  C   UNL     1      35.375  37.647  21.663  0.00  0.00    +0.143 A 
ATOM      4  C   UNL     1      36.083  36.622  19.844  0.00  0.00    +0.177 A 
ATOM      5  C   UNL     1      34.880  35.311  21.472  0.00  0.00    +0.064 A 
ATOM      6  C   UNL     1      35.545  35.382  20.273  0.00  0.00    +0.160 A 
ATOM      7  C   UNL     1      34.089  36.576  23.423  0.00  0.00    +0.131 A 
ATOM      8  C   UNL     1      35.282  38.850  22.358  0.00  0.00    +0.092 A 
ATOM      9  C   UNL     1      34.597  38.909  23.569  0.00  0.00    +0.124 A 
ATOM     10  C   UNL     1      33.997  37.780  24.114  0.00  0.00    +0.091 A 
ENDROOT
BRANCH   4  11
ATOM     11  C   UNL     1      36.765  36.836  18.547  0.00  0.00    +0.021 A 
ATOM     12  C   UNL     1      38.156  37.066  18.496  0.00  0.00    +0.015 A 
ATOM     13  C   UNL     1      36.066  36.845  17.323  0.00  0.00    +0.015 A 
ATOM     14  C   UNL     1      38.820  37.271  17.279  0.00  0.00    +0.046 A 
ATOM     15  C   UNL     1      36.725  37.050  16.108  0.00  0.00    +0.046 A 
ATOM     16  C   UNL     1      38.095  37.261  16.094  0.00  0.00    +0.117 A 
BRANCH  16  17
ATOM     17  O   UNL     1      38.685  37.462  14.884  0.00  0.00    -0.507 OA
ATOM     18  H   UNL     1      39.150  36.655  14.607  0.00  0.00    +0.292 HD
ENDBRANCH  16  17
ENDBRANCH   4  11
BRANCH   6  19
ATOM     19  O   UNL     1      35.681  34.243  19.526  0.00  0.00    -0.503 OA
ATOM     20  H   UNL     1      36.561  34.187  19.107  0.00  0.00    +0.292 HD
ENDBRANCH   6  19
BRANCH   7  21
ATOM     21  O   UNL     1      33.510  35.444  23.927  0.00  0.00    -0.506 OA
ATOM     22  H   UNL     1      33.821  35.269  24.834  0.00  0.00    +0.292 HD
ENDBRANCH   7  21
BRANCH   9  23
ATOM     23  O   UNL     1      34.542  40.116  24.196  0.00  0.00    -0.507 OA
ATOM     24  H   UNL     1      34.160  40.799  23.615  0.00  0.00    +0.292 HD
ENDBRANCH   9  23
TORSDOF 5
ENDMDL
MODEL 5
REMARK VINA RESULT:    -7.651      2.317      7.169
REMARK INTER + INTRA:          -9.118
REMARK INTER:                  -8.776
REMARK INTRA:                  -0.342
REMARK UNBOUND:                -0.125
REMARK  Name = 440832
REMARK  5 active torsions:
REMARK  status: ('A' for Active; 'I' for Inactive)
REMARK    1  A    between atoms: O_2  and  C_11
REMARK    2  A    between atoms: O_3  and  C_12
REMARK    3  A    between atoms: O_4  and  C_14
REMARK    4  A    between atoms: O_5  and  C_20
REMARK    5  A    between atoms: C_8  and  C_9
REMARK                            x       y       z     vdW  Elec       q    Type
REMARK                         _______ _______ _______ _____ _____    ______ ____
ROOT
ATOM      1  O   UNL     1      35.262  36.772  21.709  0.00  0.00    -0.451 OA
ATOM      2  C   UNL     1      35.098  38.345  23.449  0.00  0.00    +0.062 A 
ATOM      3  C   UNL     1      35.170  37.032  22.940  0.00  0.00    +0.143 A 
ATOM      4  C   UNL     1      35.382  37.698  20.849  0.00  0.00    +0.177 A 
ATOM      5  C   UNL     1      35.148  39.395  22.547  0.00  0.00    +0.064 A 
ATOM      6  C   UNL     1      35.296  39.063  21.223  0.00  0.00    +0.160 A 
ATOM      7  C   UNL     1      34.983  38.532  24.841  0.00  0.00    +0.131 A 
ATOM      8  C   UNL     1      35.129  35.951  23.818  0.00  0.00    +0.092 A 
ATOM      9  C   UNL     1      35.018  36.166  25.189  0.00  0.00    +0.124 A 
ATOM     10  C   UNL     1      34.943  37.450  25.715  0.00  0.00    +0.091 A 
ENDROOT
BRANCH   4  11
ATOM     11  C   UNL     1      35.605  37.221  19.465  0.00  0.00    +0.021 A 
ATOM     12  C   UNL     1      36.905  36.914  19.012  0.00  0.00    +0.015 A 
ATOM     13  C   UNL     1      34.550  37.079  18.541  0.00  0.00    +0.015 A 
ATOM     14  C   UNL     1      37.136  36.462  17.705  0.00  0.00    +0.046 A 
ATOM     15  C   UNL     1      34.778  36.629  17.237  0.00  0.00    +0.046 A 
ATOM     16  C   UNL     1      36.068  36.324  16.829  0.00  0.00    +0.117 A 
BRANCH  16  17
ATOM     17  O   UNL     1      36.233  35.898  15.548  0.00  0.00    -0.507 OA
ATOM     18  H   UNL     1      36.510  34.965  15.544  0.00  0.00    +0.292 HD
ENDBRANCH  16  17
ENDBRANCH   4  11
BRANCH   6  19
ATOM     19  O   UNL     1      35.346  40.067  20.294  0.00  0.00    -0.503 OA
ATOM     20  H   UNL     1      35.932  40.794  20.578  0.00  0.00    +0.292 HD
ENDBRANCH   6  19
BRANCH   7  21
ATOM     21  O   UNL     1      34.912  39.811  25.320  0.00  0.00    -0.506 OA
ATOM     22  H   UNL     1      35.591  40.376  24.909  0.00  0.00    +0.292 HD
ENDBRANCH   7  21
BRANCH   9  23
ATOM     23  O   UNL     1      34.986  35.067  25.991  0.00  0.00    -0.507 OA
ATOM     24  H   UNL     1      34.073  34.845  26.251  0.00  0.00    +0.292 HD
ENDBRANCH   9  23
TORSDOF 5
ENDMDL
MODEL 6
REMARK VINA RESULT:    -7.601      2.650      6.744
REMARK INTER + INTRA:          -9.059
REMARK INTER:                  -8.716
REMARK INTRA:                  -0.343
REMARK UNBOUND:                -0.125
REMARK  Name = 440832
REMARK  5 active torsions:
REMARK  status: ('A' for Active; 'I' for Inactive)
REMARK    1  A    between atoms: O_2  and  C_11
REMARK    2  A    between atoms: O_3  and  C_12
REMARK    3  A    between atoms: O_4  and  C_14
REMARK    4  A    between atoms: O_5  and  C_20
REMARK    5  A    between atoms: C_8  and  C_9
REMARK                            x       y       z     vdW  Elec       q    Type
REMARK                         _______ _______ _______ _____ _____    ______ ____
ROOT
ATOM      1  O   UNL     1      34.976  37.609  21.475  0.00  0.00    -0.451 OA
ATOM      2  C   UNL     1      33.778  36.480  23.154  0.00  0.00    +0.062 A 
ATOM      3  C   UNL     1      34.228  37.640  22.491  0.00  0.00    +0.143 A 
ATOM      4  C   UNL     1      35.300  36.509  20.932  0.00  0.00    +0.177 A 
ATOM      5  C   UNL     1      34.166  35.251  22.649  0.00  0.00    +0.064 A 
ATOM      6  C   UNL     1      34.939  35.267  21.514  0.00  0.00    +0.160 A 
ATOM      7  C   UNL     1      32.957  36.619  24.292  0.00  0.00    +0.131 A 
ATOM      8  C   UNL     1      33.853  38.894  22.968  0.00  0.00    +0.092 A 
ATOM      9  C   UNL     1      33.038  39.002  24.092  0.00  0.00    +0.124 A 
ATOM     10  C   UNL     1      32.583  37.873  24.764  0.00  0.00    +0.091 A 
ENDROOT
BRANCH   4  11
ATOM     11  C   UNL     1      36.075  36.652  19.678  0.00  0.00    +0.021 A 
ATOM     12  C   UNL     1      35.418  36.706  18.431  0.00  0.00    +0.015 A 
ATOM     13  C   UNL     1      37.483  36.714  19.668  0.00  0.00    +0.015 A 
ATOM     14  C   UNL     1      36.134  36.841  17.233  0.00  0.00    +0.046 A 
ATOM     15  C   UNL     1      38.198  36.847  18.475  0.00  0.00    +0.046 A 
ATOM     16  C   UNL     1      37.520  36.910  17.268  0.00  0.00    +0.117 A 
BRANCH  16  17
ATOM     17  O   UNL     1      38.267  37.033  16.137  0.00  0.00    -0.507 OA
ATOM     18  H   UNL     1      38.297  37.965  15.862  0.00  0.00    +0.292 HD
ENDBRANCH  16  17
ENDBRANCH   4  11
BRANCH   6  19
ATOM     19  O   UNL     1      35.351  34.076  20.979  0.00  0.00    -0.503 OA
ATOM     20  H   UNL     1      35.154  34.021  20.025  0.00  0.00    +0.292 HD
ENDBRANCH   6  19
BRANCH   7  21
ATOM     21  O   UNL     1      32.529  35.486  24.926  0.00  0.00    -0.506 OA
ATOM     22  H   UNL     1      31.764  35.096  24.464  0.00  0.00    +0.292 HD
ENDBRANCH   7  21
BRANCH   9  23
ATOM     23  O   UNL     1      32.707  40.255  24.504  0.00  0.00    -0.507 OA
ATOM     24  H   UNL     1      32.204  40.732  23.817  0.00  0.00    +0.292 HD
ENDBRANCH   9  23
TORSDOF 5
ENDMDL
MODEL 7
REMARK VINA RESULT:    -7.349      3.504      6.522
REMARK INTER + INTRA:          -8.763
REMARK INTER:                  -8.802
REMARK INTRA:                   0.039
REMARK UNBOUND:                -0.125
REMARK  Name = 440832
REMARK  5 active torsions:
REMARK  status: ('A' for Active; 'I' for Inactive)
REMARK    1  A    between atoms: O_2  and  C_11
REMARK    2  A    between atoms: O_3  and  C_12
REMARK    3  A    between atoms: O_4  and  C_14
REMARK    4  A    between atoms: O_5  and  C_20
REMARK    5  A    between atoms: C_8  and  C_9
REMARK                            x       y       z     vdW  Elec       q    Type
REMARK                         _______ _______ _______ _____ _____    ______ ____
ROOT
ATOM      1  O   UNL     1      35.395  35.645  21.196  0.00  0.00    -0.451 OA
ATOM      2  C   UNL     1      33.713  34.150  21.876  0.00  0.00    +0.062 A 
ATOM      3  C   UNL     1      34.568  35.254  22.065  0.00  0.00    +0.143 A 
ATOM      4  C   UNL     1      35.442  35.108  20.047  0.00  0.00    +0.177 A 
ATOM      5  C   UNL     1      33.777  33.478  20.667  0.00  0.00    +0.064 A 
ATOM      6  C   UNL     1      34.656  33.970  19.734  0.00  0.00    +0.160 A 
ATOM      7  C   UNL     1      32.833  33.782  22.913  0.00  0.00    +0.131 A 
ATOM      8  C   UNL     1      34.528  35.957  23.267  0.00  0.00    +0.092 A 
ATOM      9  C   UNL     1      33.646  35.574  24.274  0.00  0.00    +0.124 A 
ATOM     10  C   UNL     1      32.794  34.487  24.112  0.00  0.00    +0.091 A 
ENDROOT
BRANCH   4  11
ATOM     11  C   UNL     1      36.377  35.765  19.104  0.00  0.00    +0.021 A 
ATOM     12  C   UNL     1      37.542  36.405  19.578  0.00  0.00    +0.015 A 
ATOM     13  C   UNL     1      36.140  35.805  17.716  0.00  0.00    +0.015 A 
ATOM     14  C   UNL     1      38.439  37.033  18.702  0.00  0.00    +0.046 A 
ATOM     15  C   UNL     1      37.032  36.431  16.841  0.00  0.00    +0.046 A 
ATOM     16  C   UNL     1      38.173  37.040  17.339  0.00  0.00    +0.117 A 
BRANCH  16  17
ATOM     17  O   UNL     1      39.004  37.640  16.444  0.00  0.00    -0.507 OA
ATOM     18  H   UNL     1      39.181  38.555  16.721  0.00  0.00    +0.292 HD
ENDBRANCH  16  17
ENDBRANCH   4  11
BRANCH   6  19
ATOM     19  O   UNL     1      34.758  33.337  18.525  0.00  0.00    -0.503 OA
ATOM     20  H   UNL     1      34.008  33.553  17.939  0.00  0.00    +0.292 HD
ENDBRANCH   6  19
BRANCH   7  21
ATOM     21  O   UNL     1      32.010  32.708  22.717  0.00  0.00    -0.506 OA
ATOM     22  H   UNL     1      31.526  32.486  23.534  0.00  0.00    +0.292 HD
ENDBRANCH   7  21
BRANCH   9  23
ATOM     23  O   UNL     1      33.655  36.305  25.422  0.00  0.00    -0.507 OA
ATOM     24  H   UNL     1      33.256  37.184  25.284  0.00  0.00    +0.292 HD
ENDBRANCH   9  23
TORSDOF 5
ENDMDL
MODEL 8
REMARK VINA RESULT:    -7.083      3.403      4.739
REMARK INTER + INTRA:          -8.450
REMARK INTER:                  -8.138
REMARK INTRA:                  -0.313
REMARK UNBOUND:                -0.125
REMARK  Name = 440832
REMARK  5 active torsions:
REMARK  status: ('A' for Active; 'I' for Inactive)
REMARK    1  A    between atoms: O_2  and  C_11
REMARK    2  A    between atoms: O_3  and  C_12
REMARK    3  A    between atoms: O_4  and  C_14
REMARK    4  A    between atoms: O_5  and  C_20
REMARK    5  A    between atoms: C_8  and  C_9
REMARK                            x       y       z     vdW  Elec       q    Type
REMARK                         _______ _______ _______ _____ _____    ______ ____
ROOT
ATOM      1  O   UNL     1      34.173  35.757  22.517  0.00  0.00    -0.451 OA
ATOM      2  C   UNL     1      35.709  36.267  20.812  0.00  0.00    +0.062 A 
ATOM      3  C   UNL     1      34.738  35.454  21.430  0.00  0.00    +0.143 A 
ATOM      4  C   UNL     1      34.389  36.873  23.080  0.00  0.00    +0.177 A 
ATOM      5  C   UNL     1      36.040  37.464  21.424  0.00  0.00    +0.064 A 
ATOM      6  C   UNL     1      35.364  37.772  22.579  0.00  0.00    +0.160 A 
ATOM      7  C   UNL     1      36.294  35.834  19.605  0.00  0.00    +0.131 A 
ATOM      8  C   UNL     1      34.375  34.245  20.839  0.00  0.00    +0.092 A 
ATOM      9  C   UNL     1      34.966  33.844  19.644  0.00  0.00    +0.124 A 
ATOM     10  C   UNL     1      35.928  34.628  19.016  0.00  0.00    +0.091 A 
ENDROOT
BRANCH   4  11
ATOM     11  C   UNL     1      33.554  37.125  24.277  0.00  0.00    +0.021 A 
ATOM     12  C   UNL     1      34.095  36.982  25.572  0.00  0.00    +0.015 A 
ATOM     13  C   UNL     1      32.196  37.487  24.183  0.00  0.00    +0.015 A 
ATOM     14  C   UNL     1      33.321  37.214  26.718  0.00  0.00    +0.046 A 
ATOM     15  C   UNL     1      31.422  37.719  25.324  0.00  0.00    +0.046 A 
ATOM     16  C   UNL     1      31.989  37.581  26.581  0.00  0.00    +0.117 A 
BRANCH  16  17
ATOM     17  O   UNL     1      31.189  37.812  27.657  0.00  0.00    -0.507 OA
ATOM     18  H   UNL     1      30.384  37.270  27.591  0.00  0.00    +0.292 HD
ENDBRANCH  16  17
ENDBRANCH   4  11
BRANCH   6  19
ATOM     19  O   UNL     1      35.660  38.944  23.223  0.00  0.00    -0.503 OA
ATOM     20  H   UNL     1      34.854  39.429  23.481  0.00  0.00    +0.292 HD
ENDBRANCH   6  19
BRANCH   7  21
ATOM     21  O   UNL     1      37.235  36.632  19.016  0.00  0.00    -0.506 OA
ATOM     22  H   UNL     1      37.863  36.977  19.678  0.00  0.00    +0.292 HD
ENDBRANCH   7  21
BRANCH   9  23
ATOM     23  O   UNL     1      34.565  32.655  19.118  0.00  0.00    -0.507 OA
ATOM     24  H   UNL     1      34.861  31.907  19.670  0.00  0.00    +0.292 HD
ENDBRANCH   9  23
TORSDOF 5
ENDMDL
MODEL 9
REMARK VINA RESULT:    -6.988      2.785      4.699
REMARK INTER + INTRA:          -8.339
REMARK INTER:                  -8.000
REMARK INTRA:                  -0.339
REMARK UNBOUND:                -0.125
REMARK  Name = 440832
REMARK  5 active torsions:
REMARK  status: ('A' for Active; 'I' for Inactive)
REMARK    1  A    between atoms: O_2  and  C_11
REMARK    2  A    between atoms: O_3  and  C_12
REMARK    3  A    between atoms: O_4  and  C_14
REMARK    4  A    between atoms: O_5  and  C_20
REMARK    5  A    between atoms: C_8  and  C_9
REMARK                            x       y       z     vdW  Elec       q    Type
REMARK                         _______ _______ _______ _____ _____    ______ ____
ROOT
ATOM      1  O   UNL     1      34.968  37.057  22.773  0.00  0.00    -0.451 OA
ATOM      2  C   UNL     1      34.957  37.592  20.484  0.00  0.00    +0.062 A 
ATOM      3  C   UNL     1      35.008  36.691  21.566  0.00  0.00    +0.143 A 
ATOM      4  C   UNL     1      34.789  38.274  23.084  0.00  0.00    +0.177 A 
ATOM      5  C   UNL     1      34.839  38.942  20.767  0.00  0.00    +0.064 A 
ATOM      6  C   UNL     1      34.751  39.288  22.094  0.00  0.00    +0.160 A 
ATOM      7  C   UNL     1      35.024  37.086  19.170  0.00  0.00    +0.131 A 
ATOM      8  C   UNL     1      35.121  35.325  21.318  0.00  0.00    +0.092 A 
ATOM      9  C   UNL     1      35.180  34.852  20.010  0.00  0.00    +0.124 A 
ATOM     10  C   UNL     1      35.134  35.721  18.926  0.00  0.00    +0.091 A 
ENDROOT
BRANCH   4  11
ATOM     11  C   UNL     1      34.641  38.517  24.537  0.00  0.00    +0.021 A 
ATOM     12  C   UNL     1      33.391  38.349  25.169  0.00  0.00    +0.015 A 
ATOM     13  C   UNL     1      35.715  38.947  25.341  0.00  0.00    +0.015 A 
ATOM     14  C   UNL     1      33.229  38.574  26.544  0.00  0.00    +0.046 A 
ATOM     15  C   UNL     1      35.557  39.174  26.711  0.00  0.00    +0.046 A 
ATOM     16  C   UNL     1      34.317  38.986  27.302  0.00  0.00    +0.117 A 
BRANCH  16  17
ATOM     17  O   UNL     1      34.217  39.228  28.637  0.00  0.00    -0.507 OA
ATOM     18  H   UNL     1      34.494  38.440  29.136  0.00  0.00    +0.292 HD
ENDBRANCH  16  17
ENDBRANCH   4  11
BRANCH   6  19
ATOM     19  O   UNL     1      34.637  40.612  22.424  0.00  0.00    -0.503 OA
ATOM     20  H   UNL     1      34.590  41.180  21.631  0.00  0.00    +0.292 HD
ENDBRANCH   6  19
BRANCH   7  21
ATOM     21  O   UNL     1      34.975  37.972  18.129  0.00  0.00    -0.506 OA
ATOM     22  H   UNL     1      34.432  37.622  17.399  0.00  0.00    +0.292 HD
ENDBRANCH   7  21
BRANCH   9  23
ATOM     23  O   UNL     1      35.287  33.506  19.838  0.00  0.00    -0.507 OA
ATOM     24  H   UNL     1      35.997  33.134  20.392  0.00  0.00    +0.292 HD
ENDBRANCH   9  23
TORSDOF 5
ENDMDL
