REMARK  Name = 440832
REMARK  5 active torsions:
REMARK  status: ('A' for Active; 'I' for Inactive)
REMARK    1  A    between atoms: O_2  and  C_11
REMARK    2  A    between atoms: O_3  and  C_12
REMARK    3  A    between atoms: O_4  and  C_14
REMARK    4  A    between atoms: O_5  and  C_20
REMARK    5  A    between atoms: C_8  and  C_9
REMARK                            x       y       z     vdW  Elec       q    Type
REMARK                         _______ _______ _______ _____ _____    ______ ____
ROOT
ATOM      1  O   UNL     1       1.252   1.213   0.071  0.00  0.00    -0.451 OA
ATOM      2  C   UNL     1       0.057  -0.811   0.023  0.00  0.00    +0.062 A 
ATOM      3  C   UNL     1       0.152   0.595   0.042  0.00  0.00    +0.143 A 
ATOM      4  C   UNL     1       2.356   0.592  -0.004  0.00  0.00    +0.177 A 
ATOM      5  C   UNL     1       1.233  -1.542   0.018  0.00  0.00    +0.064 A 
ATOM      6  C   UNL     1       2.404  -0.825   0.001  0.00  0.00    +0.160 A 
ATOM      7  C   UNL     1      -1.219  -1.409   0.006  0.00  0.00    +0.131 A 
ATOM      8  C   UNL     1      -1.010   1.363   0.042  0.00  0.00    +0.092 A 
ATOM      9  C   UNL     1      -2.258   0.746   0.021  0.00  0.00    +0.124 A 
ATOM     10  C   UNL     1      -2.378  -0.639   0.004  0.00  0.00    +0.091 A 
ENDROOT
BRANCH   4  11
ATOM     11  C   UNL     1       3.546   1.470  -0.084  0.00  0.00    +0.021 A 
ATOM     12  C   UNL     1       3.562   2.719   0.572  0.00  0.00    +0.015 A 
ATOM     13  C   UNL     1       4.690   1.119  -0.828  0.00  0.00    +0.015 A 
ATOM     14  C   UNL     1       4.678   3.565   0.508  0.00  0.00    +0.046 A 
ATOM     15  C   UNL     1       5.804   1.961  -0.894  0.00  0.00    +0.046 A 
ATOM     16  C   UNL     1       5.790   3.176  -0.227  0.00  0.00    +0.117 A 
BRANCH  16  17
ATOM     17  O   UNL     1       6.898   3.959  -0.331  0.00  0.00    -0.507 OA
ATOM     18  H   UNL     1       6.761   4.790   0.155  0.00  0.00    +0.292 HD
ENDBRANCH  16  17
ENDBRANCH   4  11
BRANCH   6  19
ATOM     19  O   UNL     1       3.593  -1.504   0.000  0.00  0.00    -0.503 OA
ATOM     20  H   UNL     1       3.458  -2.470   0.036  0.00  0.00    +0.292 HD
ENDBRANCH   6  19
BRANCH   7  21
ATOM     21  O   UNL     1      -1.297  -2.774  -0.011  0.00  0.00    -0.506 OA
ATOM     22  H   UNL     1      -2.226  -3.070  -0.016  0.00  0.00    +0.292 HD
ENDBRANCH   7  21
BRANCH   9  23
ATOM     23  O   UNL     1      -3.353   1.554   0.019  0.00  0.00    -0.507 OA
ATOM     24  H   UNL     1      -4.177   1.033  -0.002  0.00  0.00    +0.292 HD
ENDBRANCH   9  23
TORSDOF 5
