REMARK  Name = 5280443
REMARK  4 active torsions:
REMARK  status: ('A' for Active; 'I' for Inactive)
REMARK    1  A    between atoms: O_2  and  C_12
REMARK    2  A    between atoms: O_4  and  C_14
REMARK    3  A    between atoms: O_5  and  C_20
REMARK    4  A    between atoms: C_8  and  C_9
REMARK                            x       y       z     vdW  Elec       q    Type
REMARK                         _______ _______ _______ _____ _____    ______ ____
ROOT
ATOM      1  O   UNL     1      -0.799  -2.120   0.014  0.00  0.00    -0.454 OA
ATOM      2  O   UNL     1      -2.418   1.616   0.015  0.00  0.00    -0.287 OA
ATOM      3  C   UNL     1      -0.418   0.291   0.002  0.00  0.00    +0.105 A 
ATOM      4  C   UNL     1       0.038  -1.031   0.017  0.00  0.00    +0.146 A 
ATOM      5  C   UNL     1      -2.158  -1.894  -0.044  0.00  0.00    +0.139 A 
ATOM      6  C   UNL     1      -1.883   0.517  -0.009  0.00  0.00    +0.197 A 
ATOM      7  C   UNL     1      -2.733  -0.687  -0.056  0.00  0.00    +0.098 A 
ATOM      8  C   UNL     1       0.520   1.335  -0.008  0.00  0.00    +0.135 A 
ATOM      9  C   UNL     1       1.406  -1.311   0.026  0.00  0.00    +0.092 A 
ATOM     10  C   UNL     1       2.320  -0.265   0.011  0.00  0.00    +0.124 A 
ATOM     11  C   UNL     1       1.892   1.058  -0.006  0.00  0.00    +0.091 A 
ENDROOT
BRANCH   5  12
ATOM     12  C   UNL     1      -2.970  -3.111  -0.101  0.00  0.00    +0.018 A 
ATOM     13  C   UNL     1      -3.307  -3.677  -1.339  0.00  0.00    +0.015 A 
ATOM     14  C   UNL     1      -3.417  -3.720   1.079  0.00  0.00    +0.015 A 
ATOM     15  C   UNL     1      -4.072  -4.845  -1.397  0.00  0.00    +0.046 A 
ATOM     16  C   UNL     1      -4.182  -4.886   1.020  0.00  0.00    +0.046 A 
ATOM     17  C   UNL     1      -4.499  -5.442  -0.215  0.00  0.00    +0.117 A 
BRANCH  17  18
ATOM     18  O   UNL     1      -5.236  -6.589  -0.224  0.00  0.00    -0.507 OA
ATOM     19  H   UNL     1      -5.343  -6.882  -1.144  0.00  0.00    +0.292 HD
ENDBRANCH  17  18
ENDBRANCH   5  12
BRANCH   8  20
ATOM     20  O   UNL     1       0.115   2.639  -0.029  0.00  0.00    -0.506 OA
ATOM     21  H   UNL     1       0.874   3.240  -0.004  0.00  0.00    +0.292 HD
ENDBRANCH   8  20
BRANCH  10  22
ATOM     22  O   UNL     1       3.646  -0.585   0.005  0.00  0.00    -0.507 OA
ATOM     23  H   UNL     1       4.175   0.229  -0.037  0.00  0.00    +0.292 HD
ENDBRANCH  10  22
TORSDOF 4
