REMARK  Name = 5281607
REMARK  3 active torsions:
REMARK  status: ('A' for Active; 'I' for Inactive)
REMARK    1  A    between atoms: O_2  and  C_10
REMARK    2  A    between atoms: O_4  and  C_13
REMARK    3  A    between atoms: C_7  and  C_9
REMARK                            x       y       z     vdW  Elec       q    Type
REMARK                         _______ _______ _______ _____ _____    ______ ____
ROOT
ATOM      1  O   UNL     1      -0.787  -2.116   0.013  0.00  0.00    -0.454 OA
ATOM      2  O   UNL     1      -2.402   1.621   0.025  0.00  0.00    -0.287 OA
ATOM      3  C   UNL     1      -0.404   0.292   0.005  0.00  0.00    +0.105 A 
ATOM      4  C   UNL     1       0.055  -1.029   0.013  0.00  0.00    +0.146 A 
ATOM      5  C   UNL     1      -2.145  -1.887  -0.066  0.00  0.00    +0.139 A 
ATOM      6  C   UNL     1      -1.865   0.521  -0.011  0.00  0.00    +0.197 A 
ATOM      7  C   UNL     1       0.531   1.342  -0.002  0.00  0.00    +0.135 A 
ATOM      8  C   UNL     1      -2.716  -0.678  -0.084  0.00  0.00    +0.098 A 
ATOM      9  C   UNL     1       1.425  -1.304   0.019  0.00  0.00    +0.092 A 
ATOM     10  C   UNL     1       2.335  -0.249  -0.001  0.00  0.00    +0.124 A 
ATOM     11  C   UNL     1       1.901   1.071  -0.009  0.00  0.00    +0.091 A 
ENDROOT
BRANCH   5  12
ATOM     12  C   UNL     1      -2.962  -3.102  -0.112  0.00  0.00    +0.017 A 
ATOM     13  C   UNL     1      -3.353  -3.652  -1.339  0.00  0.00    +0.011 A 
ATOM     14  C   UNL     1      -3.336  -3.740   1.078  0.00  0.00    +0.011 A 
ATOM     15  C   UNL     1      -4.073  -4.848  -1.375  0.00  0.00    +0.001 A 
ATOM     16  C   UNL     1      -4.045  -4.941   1.039  0.00  0.00    +0.001 A 
ATOM     17  C   UNL     1      -4.405  -5.499  -0.188  0.00  0.00    +0.000 A 
ENDBRANCH   5  12
BRANCH   7  18
ATOM     18  O   UNL     1       0.116   2.642  -0.013  0.00  0.00    -0.506 OA
ATOM     19  H   UNL     1       0.872   3.248   0.001  0.00  0.00    +0.292 HD
ENDBRANCH   7  18
BRANCH  10  20
ATOM     20  O   UNL     1       3.663  -0.560  -0.015  0.00  0.00    -0.507 OA
ATOM     21  H   UNL     1       4.186   0.258  -0.063  0.00  0.00    +0.292 HD
ENDBRANCH  10  20
TORSDOF 3
