REMARK  Name = 11095
REMARK  5 active torsions:
REMARK  status: ('A' for Active; 'I' for Inactive)
REMARK    1  A    between atoms: O_3  and  C_13
REMARK    2  A    between atoms: O_4  and  C_18
REMARK    3  A    between atoms: O_5  and  C_19
REMARK    4  A    between atoms: O_6  and  C_21
REMARK    5  A    between atoms: C_7  and  C_9
REMARK                            x       y       z     vdW  Elec       q    Type
REMARK                         _______ _______ _______ _____ _____    ______ ____
ROOT
ATOM      1  O   UNL     1       0.773  -2.155   0.139  0.00  0.00    -0.483 OA
ATOM      2  O   UNL     1       2.302   1.635  -0.072  0.00  0.00    -0.292 OA
ATOM      3  C   UNL     1       2.118  -1.923  -0.308  0.00  0.00    +0.211 C 
ATOM      4  C   UNL     1       2.728  -0.690   0.349  0.00  0.00    +0.129 C 
ATOM      5  C   UNL     1       0.410   0.253  -0.026  0.00  0.00    +0.101 A 
ATOM      6  C   UNL     1       1.862   0.493   0.039  0.00  0.00    +0.174 C 
ATOM      7  C   UNL     1      -0.049  -1.064   0.037  0.00  0.00    +0.139 A 
ATOM      8  C   UNL     1      -0.504   1.310  -0.088  0.00  0.00    +0.134 A 
ATOM      9  C   UNL     1      -1.420  -1.326   0.049  0.00  0.00    +0.092 A 
ATOM     10  C   UNL     1      -1.872   1.051  -0.081  0.00  0.00    +0.091 A 
ATOM     11  C   UNL     1      -2.320  -0.264  -0.011  0.00  0.00    +0.124 A 
ENDROOT
BRANCH   3  12
ATOM     12  C   UNL     1       2.917  -3.171   0.028  0.00  0.00    -0.003 A 
ATOM     13  C   UNL     1       3.000  -3.636   1.355  0.00  0.00    +0.056 A 
ATOM     14  C   UNL     1       3.580  -3.886  -0.986  0.00  0.00    +0.011 A 
ATOM     15  C   UNL     1       3.740  -4.777   1.645  0.00  0.00    +0.159 A 
ATOM     16  C   UNL     1       4.317  -5.036  -0.684  0.00  0.00    +0.049 A 
ATOM     17  C   UNL     1       4.391  -5.470   0.630  0.00  0.00    +0.158 A 
BRANCH  15  18
ATOM     18  O   UNL     1       3.855  -5.259   2.920  0.00  0.00    -0.503 OA
ATOM     19  H   UNL     1       3.354  -4.674   3.513  0.00  0.00    +0.292 HD
ENDBRANCH  15  18
BRANCH  17  20
ATOM     20  O   UNL     1       5.110  -6.593   0.923  0.00  0.00    -0.503 OA
ATOM     21  H   UNL     1       5.014  -6.700   1.890  0.00  0.00    +0.292 HD
ENDBRANCH  17  20
ENDBRANCH   3  12
BRANCH   8  22
ATOM     22  O   UNL     1      -0.123   2.623  -0.135  0.00  0.00    -0.506 OA
ATOM     23  H   UNL     1       0.860   2.662  -0.134  0.00  0.00    +0.292 HD
ENDBRANCH   8  22
BRANCH  11  24
ATOM     24  O   UNL     1      -3.667  -0.475   0.005  0.00  0.00    -0.507 OA
ATOM     25  H   UNL     1      -3.842  -1.429   0.061  0.00  0.00    +0.292 HD
ENDBRANCH  11  24
TORSDOF 5
