REMARK  Name = 124211
REMARK  11 active torsions:
REMARK  status: ('A' for Active; 'I' for Inactive)
REMARK    1  A    between atoms: O_2  and  C_11
REMARK    2  A    between atoms: O_2  and  C_24
REMARK    3  A    between atoms: O_3  and  C_14
REMARK    4  A    between atoms: O_3  and  C_25
REMARK    5  A    between atoms: O_4  and  C_16
REMARK    6  A    between atoms: O_4  and  C_26
REMARK    7  A    between atoms: O_5  and  C_13
REMARK    8  A    between atoms: O_6  and  C_19
REMARK    9  A    between atoms: O_6  and  C_27
REMARK   10  A    between atoms: O_8  and  C_20
REMARK   11  A    between atoms: C_12  and  C_17
REMARK                            x       y       z     vdW  Elec       q    Type
REMARK                         _______ _______ _______ _____ _____    ______ ____
ROOT
ATOM      1  O   UNL     1      -1.372  -1.622   0.063  0.00  0.00    -0.450 OA
ATOM      2  O   UNL     1      -1.140   2.382   0.283  0.00  0.00    -0.287 OA
ATOM      3  C   UNL     1       0.058   0.323   0.199  0.00  0.00    +0.113 A 
ATOM      4  C   UNL     1      -0.122  -1.056   0.089  0.00  0.00    +0.188 A 
ATOM      5  C   UNL     1       0.992  -1.900  -0.011  0.00  0.00    +0.209 A 
ATOM      6  C   UNL     1      -2.492  -0.835   0.134  0.00  0.00    +0.146 A 
ATOM      7  C   UNL     1       1.354   0.875   0.199  0.00  0.00    +0.177 A 
ATOM      8  C   UNL     1       2.300  -1.340  -0.038  0.00  0.00    +0.211 A 
ATOM      9  C   UNL     1      -1.164   1.162   0.269  0.00  0.00    +0.197 A 
ATOM     10  C   UNL     1       2.489   0.060   0.053  0.00  0.00    +0.208 A 
ATOM     11  C   UNL     1      -2.471   0.487   0.272  0.00  0.00    +0.098 A 
ENDROOT
BRANCH   6  12
ATOM     12  C   UNL     1      -3.752  -1.586   0.054  0.00  0.00    +0.100 A 
ATOM     13  C   UNL     1      -4.445  -1.785  -1.157  0.00  0.00    +0.134 A 
ATOM     14  C   UNL     1      -4.340  -2.076   1.240  0.00  0.00    +0.131 A 
ATOM     15  C   UNL     1      -5.705  -2.406  -1.148  0.00  0.00    +0.046 A 
ATOM     16  C   UNL     1      -5.594  -2.688   1.236  0.00  0.00    +0.046 A 
ATOM     17  C   UNL     1      -6.281  -2.850   0.040  0.00  0.00    +0.007 A 
BRANCH  13  18
ATOM     18  O   UNL     1      -4.082  -1.337  -2.402  0.00  0.00    -0.494 OA
ATOM     19  C   UNL     1      -2.727  -1.521  -2.795  0.00  0.00    +0.277 C 
ENDBRANCH  13  18
BRANCH  14  20
ATOM     20  O   UNL     1      -3.745  -1.976   2.471  0.00  0.00    -0.506 OA
ATOM     21  H   UNL     1      -2.819  -1.706   2.363  0.00  0.00    +0.292 HD
ENDBRANCH  14  20
ENDBRANCH   6  12
BRANCH   5  22
ATOM     22  O   UNL     1       0.961  -3.275  -0.104  0.00  0.00    -0.488 OA
ATOM     23  C   UNL     1      -0.267  -3.982  -0.007  0.00  0.00    +0.277 C 
ENDBRANCH   5  22
BRANCH   8  24
ATOM     24  O   UNL     1       3.290  -2.296  -0.154  0.00  0.00    -0.488 OA
ATOM     25  C   UNL     1       4.661  -1.933  -0.129  0.00  0.00    +0.277 C 
ENDBRANCH   8  24
BRANCH  10  26
ATOM     26  O   UNL     1       3.783   0.496  -0.007  0.00  0.00    -0.488 OA
ATOM     27  C   UNL     1       4.146   1.864   0.034  0.00  0.00    +0.277 C 
ENDBRANCH  10  26
BRANCH   7  28
ATOM     28  O   UNL     1       1.504   2.221   0.399  0.00  0.00    -0.503 OA
ATOM     29  H   UNL     1       1.677   2.628  -0.468  0.00  0.00    +0.292 HD
ENDBRANCH   7  28
TORSDOF 7
