REMARK  Name = 5819
REMARK  8 active torsions:
REMARK  status: ('A' for Active; 'I' for Inactive)
REMARK    1  A    between atoms: O_5  and  C_15
REMARK    2  A    between atoms: O_5  and  C_19
REMARK    3  A    between atoms: O_6  and  C_18
REMARK    4  A    between atoms: O_8  and  C_24
REMARK    5  A    between atoms: N_9  and  CA_11
REMARK    6  A    between atoms: C_10  and  CA_11
REMARK    7  A    between atoms: C_10  and  C_12
REMARK    8  A    between atoms: CA_11  and  C_18
REMARK                            x       y       z     vdW  Elec       q    Type
REMARK                         _______ _______ _______ _____ _____    ______ ____
ROOT
ATOM      1  I   UNL     1       3.831  -4.129  -6.312  0.00  0.00    -0.040 I 
ATOM      2  I   UNL     1       3.970  -9.335  -2.978  0.00  0.00    -0.040 I 
ATOM      3  C   UNL     1       2.846  -5.203  -2.228  0.00  0.00    -0.043 A 
ATOM      4  C   UNL     1       3.090  -6.577  -2.146  0.00  0.00    +0.021 A 
ATOM      5  C   UNL     1       3.171  -4.544  -3.424  0.00  0.00    +0.021 A 
ATOM      6  C   UNL     1       4.032  -6.598  -4.405  0.00  0.00    +0.155 A 
ATOM      7  C   UNL     1       3.715  -5.236  -4.518  0.00  0.00    +0.057 A 
ATOM      8  C   UNL     1       3.690  -7.261  -3.216  0.00  0.00    +0.057 A 
ENDROOT
BRANCH   6   9
ATOM      9  O   UNL     1       4.503  -7.377  -5.435  0.00  0.00    -0.454 OA
BRANCH   9  12
ATOM     10  I   UNL     1       7.187  -8.480  -9.893  0.00  0.00    -0.040 I 
ATOM     11  I   UNL     1       9.054  -4.364  -5.785  0.00  0.00    -0.040 I 
ATOM     12  C   UNL     1       5.696  -7.088  -6.060  0.00  0.00    +0.131 A 
ATOM     13  C   UNL     1       6.668  -6.197  -5.604  0.00  0.00    +0.064 A 
ATOM     14  C   UNL     1       5.878  -7.753  -7.277  0.00  0.00    +0.064 A 
ATOM     15  C   UNL     1       6.986  -7.467  -8.075  0.00  0.00    +0.059 A 
ATOM     16  C   UNL     1       7.753  -5.874  -6.429  0.00  0.00    +0.059 A 
ATOM     17  C   UNL     1       7.915  -6.505  -7.668  0.00  0.00    +0.143 A 
BRANCH  17  18
ATOM     18  O   UNL     1       8.973  -6.165  -8.467  0.00  0.00    -0.505 OA
ATOM     19  H   UNL     1       8.921  -6.698  -9.280  0.00  0.00    +0.292 HD
ENDBRANCH  17  18
ENDBRANCH   9  12
ENDBRANCH   6   9
BRANCH   3  20
ATOM     20  C   UNL     1       2.142  -4.414  -1.142  0.00  0.00    +0.065 C 
BRANCH  20  21
ATOM     21  CA  UNL     1       2.206  -4.939   0.303  0.00  0.00    +0.165 C 
BRANCH  21  22
ATOM     22  N   UNL     1       1.384  -4.059   1.196  0.00  0.00    -0.318 NA
ATOM     23  H1  UNL     1       1.322  -4.518   2.113  0.00  0.00    +0.119 HD
ATOM     24  H2  UNL     1       0.420  -4.068   0.850  0.00  0.00    +0.119 HD
ENDBRANCH  21  22
BRANCH  21  26
ATOM     25  OXT UNL     1       4.489  -5.771   0.628  0.00  0.00    -0.249 OA
ATOM     26  C   UNL     1       3.656  -4.905   0.817  0.00  0.00    +0.322 C 
BRANCH  26  27
ATOM     27  O   UNL     1       3.899  -3.767   1.518  0.00  0.00    -0.480 OA
ATOM     28  H   UNL     1       3.046  -3.269   1.555  0.00  0.00    +0.295 HD
ENDBRANCH  26  27
ENDBRANCH  21  26
ENDBRANCH  20  21
ENDBRANCH   3  20
TORSDOF 8
