REMARK  Name = 44423663
REMARK  20 active torsions:
REMARK  status: ('A' for Active; 'I' for Inactive)
REMARK    1  A    between atoms: O_2  and  C_25
REMARK    2  A    between atoms: N_4  and  CA_23
REMARK    3  A    between atoms: C_5  and  C_6
REMARK    4  A    between atoms: C_5  and  C_9
REMARK    5  A    between atoms: C_6  and  C_10
REMARK    6  A    between atoms: C_7  and  C_8
REMARK    7  A    between atoms: C_7  and  C_11
REMARK    8  A    between atoms: C_8  and  C_12
REMARK    9  A    between atoms: C_9  and  C_13
REMARK   10  A    between atoms: C_10  and  C_15
REMARK   11  A    between atoms: C_11  and  C_14
REMARK   12  A    between atoms: C_12  and  C_16
REMARK   13  A    between atoms: C_13  and  C_17
REMARK   14  A    between atoms: C_14  and  C_18
REMARK   15  A    between atoms: C_15  and  C_19
REMARK   16  A    between atoms: C_16  and  C_20
REMARK   17  A    between atoms: C_17  and  C_21
REMARK   18  A    between atoms: C_18  and  C_22
REMARK   19  A    between atoms: CA_23  and  CB_24
REMARK   20  A    between atoms: CA_23  and  C_25
REMARK                            x       y       z     vdW  Elec       q    Type
REMARK                         _______ _______ _______ _____ _____    ______ ____
ROOT
ATOM      1  C   UNL     1       0.901  -2.081  -2.284  0.00  0.00    +0.000 C 
ENDROOT
BRANCH   1   2
ATOM      2  C   UNL     1       1.548  -2.973  -3.341  0.00  0.00    +0.000 C 
BRANCH   2   3
ATOM      3  C   UNL     1       1.190  -4.457  -3.170  0.00  0.00    +0.004 C 
BRANCH   3   4
ATOM      4  C   UNL     1      -0.319  -4.721  -3.230  0.00  0.00    +0.027 C 
BRANCH   4   5
ATOM      5  C   UNL     1      -0.826  -4.281  -4.575  0.00  0.00    -0.031 C 
ATOM      6  C   UNL     1      -0.929  -5.082  -5.640  0.00  0.00    -0.031 C 
BRANCH   6   7
ATOM      7  C   UNL     1      -0.705  -6.565  -5.616  0.00  0.00    +0.027 C 
BRANCH   7   8
ATOM      8  C   UNL     1      -2.057  -7.228  -5.383  0.00  0.00    +0.004 C 
BRANCH   8   9
ATOM      9  C   UNL     1      -1.945  -8.745  -5.309  0.00  0.00    +0.000 C 
BRANCH   9  10
ATOM     10  C   UNL     1      -3.317  -9.378  -5.078  0.00  0.00    +0.000 C 
BRANCH  10  11
ATOM     11  C   UNL     1      -3.221 -10.903  -5.011  0.00  0.00    -0.000 C 
BRANCH  11  12
ATOM     12  C   UNL     1      -4.594 -11.539  -4.784  0.00  0.00    -0.000 C 
BRANCH  12  13
ATOM     13  C   UNL     1      -4.508 -13.065  -4.725  0.00  0.00    -0.003 C 
ATOM     14  C   UNL     1      -5.877 -13.691  -4.501  0.00  0.00    +0.004 C 
ENDBRANCH  12  13
ENDBRANCH  11  12
ENDBRANCH  10  11
ENDBRANCH   9  10
ENDBRANCH   8   9
ENDBRANCH   7   8
ENDBRANCH   6   7
ENDBRANCH   4   5
ENDBRANCH   3   4
ENDBRANCH   2   3
ENDBRANCH   1   2
BRANCH   1  15
ATOM     15  C   UNL     1       1.335  -2.463  -0.868  0.00  0.00    +0.000 C 
BRANCH  15  16
ATOM     16  C   UNL     1       0.694  -1.593   0.206  0.00  0.00    +0.009 C 
BRANCH  16  17
ATOM     17  C   UNL     1      -0.832  -1.702   0.241  0.00  0.00    +0.096 C 
BRANCH  17  20
ATOM     18  O   UNL     1      -0.768  -0.261   2.205  0.00  0.00    -0.276 OA
ATOM     19  N   UNL     1      -2.788  -0.770   1.326  0.00  0.00    -0.303 N 
ATOM     20  C   ACE A   0      -1.421  -0.832   1.327  0.00  0.00    +0.214 C 
ATOM     21  H   UNL     1      -3.295  -1.314   0.644  0.00  0.00    +0.149 HD
BRANCH  19  22
ATOM     22  CA  UNL     1      -3.546   0.017   2.293  0.00  0.00    +0.178 C 
ATOM     23  CB  UNL     1      -4.887   0.397   1.683  0.00  0.00    +0.040 C 
BRANCH  22  25
ATOM     24  OXT UNL     1      -4.812  -1.010   4.124  0.00  0.00    -0.249 OA
ATOM     25  C   UNL     1      -3.733  -0.748   3.615  0.00  0.00    +0.325 C 
BRANCH  25  26
ATOM     26  O   UNL     1      -2.561  -1.064   4.220  0.00  0.00    -0.479 OA
ATOM     27  H   UNL     1      -1.776  -0.730   3.717  0.00  0.00    +0.295 HD
ENDBRANCH  25  26
ENDBRANCH  22  25
ENDBRANCH  19  22
ENDBRANCH  17  20
ENDBRANCH  16  17
ENDBRANCH  15  16
ENDBRANCH   1  15
TORSDOF 18
