REMARK  Name = 5460197
REMARK  9 active torsions:
REMARK  status: ('A' for Active; 'I' for Inactive)
REMARK    1  A    between atoms: N_4  and  C_10
REMARK    2  A    between atoms: C_5  and  C_6
REMARK    3  A    between atoms: C_5  and  C_7
REMARK    4  A    between atoms: C_6  and  C_8
REMARK    5  A    between atoms: C_7  and  C_9
REMARK    6  A    between atoms: C_8  and  C_11
REMARK    7  A    between atoms: C_9  and  C_10
REMARK    8  A    between atoms: C_10  and  C_12
REMARK    9  A    between atoms: C_11  and  C_13
REMARK                            x       y       z     vdW  Elec       q    Type
REMARK                         _______ _______ _______ _____ _____    ______ ____
ROOT
ATOM      1  C   UNL     1       3.080  -0.264   1.146  0.00  0.00    +0.076 C 
ENDROOT
BRANCH   1   3
ATOM      2  O   UNL     1       1.727  -0.486  -0.818  0.00  0.00    -0.296 OA
ATOM      3  C   UNL     1       2.464   0.244  -0.147  0.00  0.00    +0.150 C 
BRANCH   3   4
ATOM      4  C   UNL     1       2.792   1.698  -0.545  0.00  0.00    +0.115 C 
ATOM      5  C   UNL     1       1.856   2.674   0.154  0.00  0.00    +0.032 C 
BRANCH   4   6
ATOM      6  N   UNL     1       2.670   1.876  -2.004  0.00  0.00    -0.322 NA
ATOM      7  H   UNL     1       3.115   2.752  -2.269  0.00  0.00    +0.119 HD
ATOM      8  H   UNL     1       3.195   1.131  -2.463  0.00  0.00    +0.119 HD
ENDBRANCH   4   6
ENDBRANCH   3   4
ENDBRANCH   1   3
BRANCH   1   9
ATOM      9  C   UNL     1       3.901  -1.539   0.950  0.00  0.00    +0.008 C 
BRANCH   9  10
ATOM     10  C   UNL     1       5.113  -1.409   0.018  0.00  0.00    +0.001 C 
BRANCH  10  11
ATOM     11  C   UNL     1       6.157  -0.367   0.424  0.00  0.00    +0.011 C 
BRANCH  11  12
ATOM     12  C   UNL     1       6.779  -0.625   1.792  0.00  0.00    +0.125 C 
BRANCH  12  15
ATOM     13  O   UNL     1       7.360   1.637   2.127  0.00  0.00    -0.246 OA
ATOM     14  O   UNL     1       8.985   0.036   2.322  0.00  0.00    -0.246 OA
ATOM     15  C   UNL     1       7.812   0.458   2.104  0.00  0.00    +0.356 C 
ENDBRANCH  12  15
ENDBRANCH  11  12
ENDBRANCH  10  11
ENDBRANCH   9  10
ENDBRANCH   1   9
TORSDOF 8
