REMARK  Name = 156988680
REMARK  47 active torsions:
REMARK  status: ('A' for Active; 'I' for Inactive)
REMARK    1  A    between atoms: P_1  and  O_7
REMARK    2  A    between atoms: P_1  and  O_8
REMARK    3  A    between atoms: P_1  and  O_9
REMARK    4  A    between atoms: O_2  and  C_22
REMARK    5  A    between atoms: O_3  and  C_27
REMARK    6  A    between atoms: O_4  and  C_40
REMARK    7  A    between atoms: O_4  and  C_44
REMARK    8  A    between atoms: O_5  and  C_46
REMARK    9  A    between atoms: O_5  and  C_47
REMARK   10  A    between atoms: O_7  and  C_48
REMARK   11  A    between atoms: O_8  and  C_51
REMARK   12  A    between atoms: N_11  and  C_52
REMARK   13  A    between atoms: C_12  and  C_13
REMARK   14  A    between atoms: C_12  and  C_14
REMARK   15  A    between atoms: C_13  and  C_15
REMARK   16  A    between atoms: C_14  and  C_16
REMARK   17  A    between atoms: C_15  and  C_17
REMARK   18  A    between atoms: C_16  and  C_18
REMARK   19  A    between atoms: C_17  and  C_21
REMARK   20  A    between atoms: C_18  and  C_23
REMARK   21  A    between atoms: C_19  and  C_20
REMARK   22  A    between atoms: C_19  and  C_22
REMARK   23  A    between atoms: C_20  and  C_24
REMARK   24  A    between atoms: C_21  and  C_26
REMARK   25  A    between atoms: C_22  and  C_27
REMARK   26  A    between atoms: C_23  and  C_28
REMARK   27  A    between atoms: C_24  and  C_25
REMARK   28  A    between atoms: C_25  and  C_29
REMARK   29  A    between atoms: C_26  and  C_30
REMARK   30  A    between atoms: C_27  and  C_33
REMARK   31  A    between atoms: C_28  and  C_31
REMARK   32  A    between atoms: C_29  and  C_32
REMARK   33  A    between atoms: C_30  and  C_34
REMARK   34  A    between atoms: C_31  and  C_35
REMARK   35  A    between atoms: C_32  and  C_36
REMARK   36  A    between atoms: C_33  and  C_37
REMARK   37  A    between atoms: C_34  and  C_38
REMARK   38  A    between atoms: C_35  and  C_41
REMARK   39  A    between atoms: C_36  and  C_40
REMARK   40  A    between atoms: C_39  and  C_42
REMARK   41  A    between atoms: C_42  and  C_43
REMARK   42  A    between atoms: C_43  and  C_45
REMARK   43  A    between atoms: C_44  and  C_46
REMARK   44  A    between atoms: C_44  and  C_48
REMARK   45  A    between atoms: C_45  and  C_49
REMARK   46  A    between atoms: C_49  and  C_50
REMARK   47  A    between atoms: C_51  and  C_52
REMARK                            x       y       z     vdW  Elec       q    Type
REMARK                         _______ _______ _______ _____ _____    ______ ____
ROOT
ATOM      1  C   UNL     1      -4.125  -4.084  12.185  0.00  0.00    +0.240 C 
ENDROOT
BRANCH   1   2
ATOM      2  O   UNL     1      -4.618  -4.437  10.865  0.00  0.00    -0.456 OA
BRANCH   2   4
ATOM      3  O   UNL     1      -6.747  -3.943  11.562  0.00  0.00    -0.251 OA
ATOM      4  C   UNL     1      -5.951  -4.287  10.675  0.00  0.00    +0.308 C 
BRANCH   4   5
ATOM      5  C   UNL     1      -6.436  -4.672   9.294  0.00  0.00    +0.120 C 
BRANCH   5   6
ATOM      6  C   UNL     1      -5.593  -4.322   8.064  0.00  0.00    +0.011 C 
BRANCH   6   7
ATOM      7  C   UNL     1      -4.383  -5.225   7.823  0.00  0.00    +0.001 C 
BRANCH   7   8
ATOM      8  C   UNL     1      -3.725  -5.016   6.443  0.00  0.00    +0.000 C 
BRANCH   8   9
ATOM      9  C   UNL     1      -3.223  -3.591   6.109  0.00  0.00    +0.000 C 
BRANCH   9  10
ATOM     10  C   UNL     1      -2.143  -3.093   7.066  0.00  0.00    +0.003 C 
BRANCH  10  11
ATOM     11  C   UNL     1      -1.415  -1.817   6.618  0.00  0.00    +0.034 C 
BRANCH  11  12
ATOM     12  C   UNL     1      -2.201  -0.485   6.537  0.00  0.00    +0.143 C 
BRANCH  12  13
ATOM     13  O   UNL     1      -1.273   0.483   6.026  0.00  0.00    -0.389 OA
ATOM     14  H   UNL     1      -0.605   0.616   6.731  0.00  0.00    +0.210 HD
ENDBRANCH  12  13
BRANCH  12  15
ATOM     15  C   UNL     1      -2.774   0.041   7.883  0.00  0.00    +0.147 C 
BRANCH  15  16
ATOM     16  O   UNL     1      -1.690   0.190   8.813  0.00  0.00    -0.389 OA
ATOM     17  H   UNL     1      -1.439  -0.702   9.111  0.00  0.00    +0.210 HD
ENDBRANCH  15  16
BRANCH  15  18
ATOM     18  C   UNL     1      -3.502   1.422   7.772  0.00  0.00    +0.060 C 
BRANCH  18  19
ATOM     19  C   UNL     1      -4.392   1.701   8.975  0.00  0.00    -0.028 C 
ATOM     20  C   UNL     1      -4.671   2.834   9.663  0.00  0.00    -0.031 C 
BRANCH  20  21
ATOM     21  C   UNL     1      -4.237   4.256   9.459  0.00  0.00    +0.027 C 
BRANCH  21  22
ATOM     22  C   UNL     1      -3.575   4.865  10.711  0.00  0.00    +0.004 C 
BRANCH  22  23
ATOM     23  C   UNL     1      -2.165   4.316  10.945  0.00  0.00    +0.000 C 
BRANCH  23  24
ATOM     24  C   UNL     1      -1.441   4.926  12.150  0.00  0.00    -0.003 C 
ATOM     25  C   UNL     1      -2.108   4.640  13.485  0.00  0.00    +0.004 C 
ENDBRANCH  23  24
ENDBRANCH  22  23
ENDBRANCH  21  22
ENDBRANCH  20  21
ENDBRANCH  18  19
ENDBRANCH  15  18
ENDBRANCH  12  15
ENDBRANCH  11  12
ENDBRANCH  10  11
ENDBRANCH   9  10
ENDBRANCH   8   9
ENDBRANCH   7   8
ENDBRANCH   6   7
ENDBRANCH   5   6
ENDBRANCH   4   5
ENDBRANCH   2   4
ENDBRANCH   1   2
BRANCH   1  26
ATOM     26  C   UNL     1      -2.865  -3.200  12.038  0.00  0.00    +0.275 C 
BRANCH  26  27
ATOM     27  O   UNL     1      -3.015  -2.061  11.200  0.00  0.00    -0.496 OA
BRANCH  27  29
ATOM     28  C   UNL     1      -4.325  -0.794  12.833  0.00  0.00    +0.011 C 
ATOM     29  C   UNL     1      -3.654  -0.963  11.686  0.00  0.00    +0.183 C 
BRANCH  28  30
ATOM     30  C   UNL     1      -5.071   0.468  13.150  0.00  0.00    +0.030 C 
BRANCH  30  31
ATOM     31  C   UNL     1      -4.476   1.163  14.367  0.00  0.00    +0.004 C 
BRANCH  31  32
ATOM     32  C   UNL     1      -5.294   2.393  14.755  0.00  0.00    +0.000 C 
BRANCH  32  33
ATOM     33  C   UNL     1      -4.682   3.064  15.981  0.00  0.00    +0.000 C 
BRANCH  33  34
ATOM     34  C   UNL     1      -5.467   4.301  16.400  0.00  0.00    +0.000 C 
BRANCH  34  35
ATOM     35  C   UNL     1      -4.813   4.951  17.616  0.00  0.00    +0.000 C 
BRANCH  35  36
ATOM     36  C   UNL     1      -5.584   6.188  18.056  0.00  0.00    -0.000 C 
BRANCH  36  37
ATOM     37  C   UNL     1      -4.928   6.830  19.273  0.00  0.00    -0.000 C 
BRANCH  37  38
ATOM     38  C   UNL     1      -5.705   8.066  19.713  0.00  0.00    -0.000 C 
BRANCH  38  39
ATOM     39  C   UNL     1      -5.054   8.712  20.931  0.00  0.00    -0.000 C 
BRANCH  39  40
ATOM     40  C   UNL     1      -5.829   9.952  21.368  0.00  0.00    -0.000 C 
BRANCH  40  41
ATOM     41  C   UNL     1      -5.176  10.599  22.587  0.00  0.00    -0.000 C 
BRANCH  41  42
ATOM     42  C   UNL     1      -5.949  11.841  23.027  0.00  0.00    -0.000 C 
BRANCH  42  43
ATOM     43  C   UNL     1      -5.293  12.489  24.245  0.00  0.00    -0.000 C 
BRANCH  43  44
ATOM     44  C   UNL     1      -6.061  13.732  24.692  0.00  0.00    -0.003 C 
ATOM     45  C   UNL     1      -5.412  14.370  25.908  0.00  0.00    +0.004 C 
ENDBRANCH  43  44
ENDBRANCH  42  43
ENDBRANCH  41  42
ENDBRANCH  40  41
ENDBRANCH  39  40
ENDBRANCH  38  39
ENDBRANCH  37  38
ENDBRANCH  36  37
ENDBRANCH  35  36
ENDBRANCH  34  35
ENDBRANCH  33  34
ENDBRANCH  32  33
ENDBRANCH  31  32
ENDBRANCH  30  31
ENDBRANCH  28  30
ENDBRANCH  27  29
ENDBRANCH  26  27
ENDBRANCH   1  26
BRANCH   1  46
ATOM     46  C   UNL     1      -3.654  -5.335  12.926  0.00  0.00    +0.220 C 
BRANCH  46  47
ATOM     47  O   UNL     1      -4.660  -6.198  13.470  0.00  0.00    -0.283 OA
BRANCH  47  48
ATOM     48  P   UNL     1      -3.891  -7.347  14.390  0.00  0.00    +0.475 P 
ATOM     49  O   UNL     1      -3.499  -8.253  13.197  0.00  0.00    -0.227 OA
BRANCH  48  50
ATOM     50  O   UNL     1      -4.330  -6.336  15.723  0.00  0.00    -0.302 OA
ATOM     51  H   UNL     1      -5.307  -6.336  15.724  0.00  0.00    +0.222 HD
ENDBRANCH  48  50
BRANCH  48  52
ATOM     52  O   UNL     1      -5.082  -8.293  14.979  0.00  0.00    -0.285 OA
BRANCH  52  53
ATOM     53  C   UNL     1      -6.142  -8.950  14.316  0.00  0.00    +0.187 C 
BRANCH  53  54
ATOM     54  C   UNL     1      -5.999  -9.405  12.858  0.00  0.00    +0.106 C 
BRANCH  54  55
ATOM     55  N   UNL     1      -5.128 -10.577  12.694  0.00  0.00    -0.328 NA
ATOM     56  H   UNL     1      -4.906 -10.674  11.703  0.00  0.00    +0.118 HD
ATOM     57  H   UNL     1      -4.224 -10.341  13.126  0.00  0.00    +0.118 HD
ENDBRANCH  54  55
ENDBRANCH  53  54
ENDBRANCH  52  53
ENDBRANCH  48  52
ENDBRANCH  47  48
ENDBRANCH  46  47
ENDBRANCH   1  46
TORSDOF 45
