REMARK  Name = 16061067
REMARK  18 active torsions:
REMARK  status: ('A' for Active; 'I' for Inactive)
REMARK    1  A    between atoms: O_1  and  C_9
REMARK    2  A    between atoms: O_2  and  C_11
REMARK    3  A    between atoms: O_3  and  C_19
REMARK    4  A    between atoms: C_5  and  C_6
REMARK    5  A    between atoms: C_5  and  C_7
REMARK    6  A    between atoms: C_6  and  C_8
REMARK    7  A    between atoms: C_7  and  C_10
REMARK    8  A    between atoms: C_8  and  C_12
REMARK    9  A    between atoms: C_9  and  C_11
REMARK   10  A    between atoms: C_9  and  C_13
REMARK   11  A    between atoms: C_10  and  C_15
REMARK   12  A    between atoms: C_11  and  C_14
REMARK   13  A    between atoms: C_12  and  C_17
REMARK   14  A    between atoms: C_13  and  C_16
REMARK   15  A    between atoms: C_14  and  C_18
REMARK   16  A    between atoms: C_17  and  C_19
REMARK   17  A    between atoms: C_20  and  C_21
REMARK   18  A    between atoms: C_21  and  C_22
REMARK                            x       y       z     vdW  Elec       q    Type
REMARK                         _______ _______ _______ _____ _____    ______ ____
ROOT
ATOM      1  C   UNL     1       2.859  -1.530   5.260  0.00  0.00    -0.031 C 
ATOM      2  C   UNL     1       2.772  -1.125   3.982  0.00  0.00    -0.028 C 
ENDROOT
BRANCH   1   3
ATOM      3  C   UNL     1       3.600  -2.717   5.809  0.00  0.00    +0.027 C 
BRANCH   3   4
ATOM      4  C   UNL     1       4.162  -2.439   7.207  0.00  0.00    +0.004 C 
BRANCH   4   5
ATOM      5  C   UNL     1       4.967  -3.630   7.737  0.00  0.00    +0.000 C 
BRANCH   5   6
ATOM      6  C   UNL     1       5.450  -3.380   9.167  0.00  0.00    +0.000 C 
BRANCH   6   7
ATOM      7  C   UNL     1       6.237  -4.572   9.719  0.00  0.00    +0.001 C 
BRANCH   7   8
ATOM      8  C   UNL     1       6.698  -4.310  11.155  0.00  0.00    +0.011 C 
BRANCH   8   9
ATOM      9  C   UNL     1       7.482  -5.491  11.726  0.00  0.00    +0.120 C 
BRANCH   9  11
ATOM     10  O   UNL     1       7.697  -4.213  13.777  0.00  0.00    -0.251 OA
ATOM     11  C   UNL     1       7.936  -5.218  13.145  0.00  0.00    +0.305 C 
BRANCH  11  12
ATOM     12  O   UNL     1       8.656  -6.244  13.661  0.00  0.00    -0.481 OA
ATOM     13  H   UNL     1       8.773  -6.995  13.053  0.00  0.00    +0.295 HD
ENDBRANCH  11  12
ENDBRANCH   9  11
ENDBRANCH   8   9
ENDBRANCH   7   8
ENDBRANCH   6   7
ENDBRANCH   5   6
ENDBRANCH   4   5
ENDBRANCH   3   4
ENDBRANCH   1   3
BRANCH   2  14
ATOM     14  C   UNL     1       3.396  -1.743   2.755  0.00  0.00    +0.060 C 
BRANCH  14  15
ATOM     15  C   UNL     1       4.471  -0.840   2.111  0.00  0.00    +0.147 C 
BRANCH  15  16
ATOM     16  O   UNL     1       3.895   0.417   1.708  0.00  0.00    -0.389 OA
ATOM     17  H   UNL     1       3.591   0.879   2.506  0.00  0.00    +0.210 HD
ENDBRANCH  15  16
BRANCH  15  18
ATOM     18  C   UNL     1       5.687  -0.585   3.036  0.00  0.00    +0.147 C 
BRANCH  18  19
ATOM     19  O   UNL     1       6.594   0.356   2.442  0.00  0.00    -0.389 OA
ATOM     20  H   UNL     1       6.088   1.172   2.283  0.00  0.00    +0.210 HD
ENDBRANCH  18  19
BRANCH  18  21
ATOM     21  C   UNL     1       6.483  -1.857   3.383  0.00  0.00    +0.060 C 
BRANCH  21  22
ATOM     22  C   UNL     1       7.008  -2.606   2.187  0.00  0.00    -0.028 C 
ATOM     23  C   UNL     1       7.577  -3.821   2.204  0.00  0.00    -0.031 C 
BRANCH  23  24
ATOM     24  C   UNL     1       7.857  -4.668   3.411  0.00  0.00    +0.023 C 
ATOM     25  C   UNL     1       7.204  -6.036   3.290  0.00  0.00    +0.008 C 
ENDBRANCH  23  24
ENDBRANCH  21  22
ENDBRANCH  18  21
ENDBRANCH  15  18
ENDBRANCH  14  15
ENDBRANCH   2  14
TORSDOF 17
