MODEL 1
REMARK VINA RESULT:    -8.056      0.000      0.000
REMARK INTER + INTRA:          -9.303
REMARK INTER:                  -8.998
REMARK INTRA:                  -0.305
REMARK UNBOUND:                -0.305
REMARK  Name = 5281607
REMARK  3 active torsions:
REMARK  status: ('A' for Active; 'I' for Inactive)
REMARK    1  A    between atoms: O_2  and  C_10
REMARK    2  A    between atoms: O_4  and  C_13
REMARK    3  A    between atoms: C_7  and  C_9
REMARK                            x       y       z     vdW  Elec       q    Type
REMARK                         _______ _______ _______ _____ _____    ______ ____
ROOT
ATOM      1  O   UNL     1      16.342 -12.304  60.172  0.00  0.00    -0.454 OA
ATOM      2  O   UNL     1      13.008 -12.199  57.839  0.00  0.00    -0.287 OA
ATOM      3  C   UNL     1      14.572 -10.959  59.171  0.00  0.00    +0.105 A 
ATOM      4  C   UNL     1      15.715 -11.098  59.965  0.00  0.00    +0.146 A 
ATOM      5  C   UNL     1      15.857 -13.412  59.509  0.00  0.00    +0.139 A 
ATOM      6  C   UNL     1      14.024 -12.169  58.522  0.00  0.00    +0.197 A 
ATOM      7  C   UNL     1      14.001  -9.684  59.009  0.00  0.00    +0.135 A 
ATOM      8  C   UNL     1      14.778 -13.418  58.719  0.00  0.00    +0.098 A 
ATOM      9  C   UNL     1      16.281  -9.986  60.595  0.00  0.00    +0.092 A 
ATOM     10  C   UNL     1      15.707  -8.730  60.411  0.00  0.00    +0.124 A 
ATOM     11  C   UNL     1      14.572  -8.569  59.627  0.00  0.00    +0.091 A 
ENDROOT
BRANCH   5  12
ATOM     12  C   UNL     1      16.617 -14.641  59.749  0.00  0.00    +0.017 A 
ATOM     13  C   UNL     1      17.312 -14.827  60.950  0.00  0.00    +0.011 A 
ATOM     14  C   UNL     1      16.631 -15.655  58.782  0.00  0.00    +0.011 A 
ATOM     15  C   UNL     1      17.976 -16.030  61.198  0.00  0.00    +0.001 A 
ATOM     16  C   UNL     1      17.286 -16.860  59.037  0.00  0.00    +0.001 A 
ATOM     17  C   UNL     1      17.950 -17.050  60.249  0.00  0.00    +0.000 A 
ENDBRANCH   5  12
BRANCH   7  18
ATOM     18  O   UNL     1      12.888  -9.514  58.238  0.00  0.00    -0.506 OA
ATOM     19  H   UNL     1      13.064  -9.756  57.317  0.00  0.00    +0.292 HD
ENDBRANCH   7  18
BRANCH  10  20
ATOM     20  O   UNL     1      16.301  -7.668  61.027  0.00  0.00    -0.507 OA
ATOM     21  H   UNL     1      17.222  -7.593  60.724  0.00  0.00    +0.292 HD
ENDBRANCH  10  20
TORSDOF 3
ENDMDL
MODEL 2
REMARK VINA RESULT:    -7.023      2.140      6.267
REMARK INTER + INTRA:          -8.149
REMARK INTER:                  -7.842
REMARK INTRA:                  -0.307
REMARK UNBOUND:                -0.305
REMARK  Name = 5281607
REMARK  3 active torsions:
REMARK  status: ('A' for Active; 'I' for Inactive)
REMARK    1  A    between atoms: O_2  and  C_10
REMARK    2  A    between atoms: O_4  and  C_13
REMARK    3  A    between atoms: C_7  and  C_9
REMARK                            x       y       z     vdW  Elec       q    Type
REMARK                         _______ _______ _______ _____ _____    ______ ____
ROOT
ATOM      1  O   UNL     1      16.822 -12.406  61.034  0.00  0.00    -0.454 OA
ATOM      2  O   UNL     1      15.900 -15.231  58.251  0.00  0.00    -0.287 OA
ATOM      3  C   UNL     1      16.986 -14.736  60.333  0.00  0.00    +0.105 A 
ATOM      4  C   UNL     1      17.261 -13.695  61.225  0.00  0.00    +0.146 A 
ATOM      5  C   UNL     1      16.016 -12.149  59.944  0.00  0.00    +0.139 A 
ATOM      6  C   UNL     1      16.177 -14.428  59.133  0.00  0.00    +0.197 A 
ATOM      7  C   UNL     1      17.471 -16.025  60.614  0.00  0.00    +0.135 A 
ATOM      8  C   UNL     1      15.673 -13.050  59.018  0.00  0.00    +0.098 A 
ATOM      9  C   UNL     1      18.013 -13.930  62.379  0.00  0.00    +0.092 A 
ATOM     10  C   UNL     1      18.473 -15.218  62.646  0.00  0.00    +0.124 A 
ATOM     11  C   UNL     1      18.211 -16.267  61.773  0.00  0.00    +0.091 A 
ENDROOT
BRANCH   5  12
ATOM     12  C   UNL     1      15.553 -10.762  59.848  0.00  0.00    +0.017 A 
ATOM     13  C   UNL     1      14.392 -10.447  59.130  0.00  0.00    +0.011 A 
ATOM     14  C   UNL     1      16.257  -9.742  60.500  0.00  0.00    +0.011 A 
ATOM     15  C   UNL     1      13.920  -9.133  59.101  0.00  0.00    +0.001 A 
ATOM     16  C   UNL     1      15.777  -8.432  60.479  0.00  0.00    +0.001 A 
ATOM     17  C   UNL     1      14.604  -8.130  59.788  0.00  0.00    +0.000 A 
ENDBRANCH   5  12
BRANCH   7  18
ATOM     18  O   UNL     1      17.217 -17.063  59.765  0.00  0.00    -0.506 OA
ATOM     19  H   UNL     1      17.399 -17.914  60.192  0.00  0.00    +0.292 HD
ENDBRANCH   7  18
BRANCH  10  20
ATOM     20  O   UNL     1      19.186 -15.410  63.793  0.00  0.00    -0.507 OA
ATOM     21  H   UNL     1      19.580 -14.567  64.073  0.00  0.00    +0.292 HD
ENDBRANCH  10  20
TORSDOF 3
ENDMDL
MODEL 3
REMARK VINA RESULT:    -6.872      2.056      6.794
REMARK INTER + INTRA:          -7.980
REMARK INTER:                  -7.676
REMARK INTRA:                  -0.304
REMARK UNBOUND:                -0.305
REMARK  Name = 5281607
REMARK  3 active torsions:
REMARK  status: ('A' for Active; 'I' for Inactive)
REMARK    1  A    between atoms: O_2  and  C_10
REMARK    2  A    between atoms: O_4  and  C_13
REMARK    3  A    between atoms: C_7  and  C_9
REMARK                            x       y       z     vdW  Elec       q    Type
REMARK                         _______ _______ _______ _____ _____    ______ ____
ROOT
ATOM      1  O   UNL     1      16.065 -12.847  59.687  0.00  0.00    -0.454 OA
ATOM      2  O   UNL     1      18.122 -13.347  63.165  0.00  0.00    -0.287 OA
ATOM      3  C   UNL     1      17.335 -14.347  61.130  0.00  0.00    +0.105 A 
ATOM      4  C   UNL     1      16.603 -14.081  59.969  0.00  0.00    +0.146 A 
ATOM      5  C   UNL     1      16.320 -11.811  60.562  0.00  0.00    +0.139 A 
ATOM      6  C   UNL     1      17.541 -13.242  62.092  0.00  0.00    +0.197 A 
ATOM      7  C   UNL     1      17.854 -15.638  61.332  0.00  0.00    +0.135 A 
ATOM      8  C   UNL     1      17.006 -11.927  61.704  0.00  0.00    +0.098 A 
ATOM      9  C   UNL     1      16.385 -15.084  59.022  0.00  0.00    +0.092 A 
ATOM     10  C   UNL     1      16.919 -16.354  59.234  0.00  0.00    +0.124 A 
ATOM     11  C   UNL     1      17.649 -16.640  60.381  0.00  0.00    +0.091 A 
ENDROOT
BRANCH   5  12
ATOM     12  C   UNL     1      15.752 -10.523  60.156  0.00  0.00    +0.017 A 
ATOM     13  C   UNL     1      14.576 -10.470  59.398  0.00  0.00    +0.011 A 
ATOM     14  C   UNL     1      16.371  -9.329  60.551  0.00  0.00    +0.011 A 
ATOM     15  C   UNL     1      14.004  -9.237  59.075  0.00  0.00    +0.001 A 
ATOM     16  C   UNL     1      15.791  -8.100  60.237  0.00  0.00    +0.001 A 
ATOM     17  C   UNL     1      14.603  -8.055  59.507  0.00  0.00    +0.000 A 
ENDBRANCH   5  12
BRANCH   7  18
ATOM     18  O   UNL     1      18.575 -15.930  62.453  0.00  0.00    -0.506 OA
ATOM     19  H   UNL     1      18.900 -16.842  62.429  0.00  0.00    +0.292 HD
ENDBRANCH   7  18
BRANCH  10  20
ATOM     20  O   UNL     1      16.701 -17.300  58.276  0.00  0.00    -0.507 OA
ATOM     21  H   UNL     1      17.182 -17.057  57.467  0.00  0.00    +0.292 HD
ENDBRANCH  10  20
TORSDOF 3
ENDMDL
MODEL 4
REMARK VINA RESULT:    -6.782      1.479      3.149
REMARK INTER + INTRA:          -7.879
REMARK INTER:                  -7.597
REMARK INTRA:                  -0.282
REMARK UNBOUND:                -0.305
REMARK  Name = 5281607
REMARK  3 active torsions:
REMARK  status: ('A' for Active; 'I' for Inactive)
REMARK    1  A    between atoms: O_2  and  C_10
REMARK    2  A    between atoms: O_4  and  C_13
REMARK    3  A    between atoms: C_7  and  C_9
REMARK                            x       y       z     vdW  Elec       q    Type
REMARK                         _______ _______ _______ _____ _____    ______ ____
ROOT
ATOM      1  O   UNL     1      15.160 -13.714  58.943  0.00  0.00    -0.454 OA
ATOM      2  O   UNL     1      17.754 -12.131  61.652  0.00  0.00    -0.287 OA
ATOM      3  C   UNL     1      15.923 -11.738  60.151  0.00  0.00    +0.105 A 
ATOM      4  C   UNL     1      15.085 -12.371  59.227  0.00  0.00    +0.146 A 
ATOM      5  C   UNL     1      16.061 -14.480  59.653  0.00  0.00    +0.139 A 
ATOM      6  C   UNL     1      16.930 -12.561  60.855  0.00  0.00    +0.197 A 
ATOM      7  C   UNL     1      15.770 -10.360  60.384  0.00  0.00    +0.135 A 
ATOM      8  C   UNL     1      16.916 -14.005  60.564  0.00  0.00    +0.098 A 
ATOM      9  C   UNL     1      14.110 -11.643  58.540  0.00  0.00    +0.092 A 
ATOM     10  C   UNL     1      13.965 -10.281  58.795  0.00  0.00    +0.124 A 
ATOM     11  C   UNL     1      14.787  -9.632  59.708  0.00  0.00    +0.091 A 
ENDROOT
BRANCH   5  12
ATOM     12  C   UNL     1      16.037 -15.906  59.321  0.00  0.00    +0.017 A 
ATOM     13  C   UNL     1      14.834 -16.623  59.343  0.00  0.00    +0.011 A 
ATOM     14  C   UNL     1      17.219 -16.559  58.949  0.00  0.00    +0.011 A 
ATOM     15  C   UNL     1      14.808 -17.965  58.958  0.00  0.00    +0.001 A 
ATOM     16  C   UNL     1      17.189 -17.897  58.554  0.00  0.00    +0.001 A 
ATOM     17  C   UNL     1      15.982 -18.596  58.550  0.00  0.00    +0.000 A 
ENDBRANCH   5  12
BRANCH   7  18
ATOM     18  O   UNL     1      16.569  -9.714  61.281  0.00  0.00    -0.506 OA
ATOM     19  H   UNL     1      16.044  -9.321  61.995  0.00  0.00    +0.292 HD
ENDBRANCH   7  18
BRANCH  10  20
ATOM     20  O   UNL     1      12.988  -9.611  58.119  0.00  0.00    -0.507 OA
ATOM     21  H   UNL     1      12.128 -10.025  58.301  0.00  0.00    +0.292 HD
ENDBRANCH  10  20
TORSDOF 3
ENDMDL
MODEL 5
REMARK VINA RESULT:    -6.451      9.585     11.729
REMARK INTER + INTRA:          -7.510
REMARK INTER:                  -7.218
REMARK INTRA:                  -0.292
REMARK UNBOUND:                -0.305
REMARK  Name = 5281607
REMARK  3 active torsions:
REMARK  status: ('A' for Active; 'I' for Inactive)
REMARK    1  A    between atoms: O_2  and  C_10
REMARK    2  A    between atoms: O_4  and  C_13
REMARK    3  A    between atoms: C_7  and  C_9
REMARK                            x       y       z     vdW  Elec       q    Type
REMARK                         _______ _______ _______ _____ _____    ______ ____
ROOT
ATOM      1  O   UNL     1      25.941 -13.620  61.080  0.00  0.00    -0.454 OA
ATOM      2  O   UNL     1      28.256 -16.137  58.871  0.00  0.00    -0.287 OA
ATOM      3  C   UNL     1      27.891 -13.894  59.641  0.00  0.00    +0.105 A 
ATOM      4  C   UNL     1      27.030 -13.109  60.414  0.00  0.00    +0.146 A 
ATOM      5  C   UNL     1      25.732 -14.983  61.033  0.00  0.00    +0.139 A 
ATOM      6  C   UNL     1      27.613 -15.344  59.546  0.00  0.00    +0.197 A 
ATOM      7  C   UNL     1      28.986 -13.286  59.002  0.00  0.00    +0.135 A 
ATOM      8  C   UNL     1      26.478 -15.847  60.337  0.00  0.00    +0.098 A 
ATOM      9  C   UNL     1      27.251 -11.735  60.547  0.00  0.00    +0.092 A 
ATOM     10  C   UNL     1      28.349 -11.154  59.916  0.00  0.00    +0.124 A 
ATOM     11  C   UNL     1      29.216 -11.916  59.143  0.00  0.00    +0.091 A 
ENDROOT
BRANCH   5  12
ATOM     12  C   UNL     1      24.580 -15.445  61.811  0.00  0.00    +0.017 A 
ATOM     13  C   UNL     1      23.360 -14.760  61.754  0.00  0.00    +0.011 A 
ATOM     14  C   UNL     1      24.684 -16.599  62.599  0.00  0.00    +0.011 A 
ATOM     15  C   UNL     1      22.248 -15.246  62.444  0.00  0.00    +0.001 A 
ATOM     16  C   UNL     1      23.569 -17.090  63.278  0.00  0.00    +0.001 A 
ATOM     17  C   UNL     1      22.349 -16.418  63.193  0.00  0.00    +0.000 A 
ENDBRANCH   5  12
BRANCH   7  18
ATOM     18  O   UNL     1      29.846 -14.025  58.243  0.00  0.00    -0.506 OA
ATOM     19  H   UNL     1      30.737 -13.645  58.260  0.00  0.00    +0.292 HD
ENDBRANCH   7  18
BRANCH  10  20
ATOM     20  O   UNL     1      28.540  -9.814  60.087  0.00  0.00    -0.507 OA
ATOM     21  H   UNL     1      27.868  -9.325  59.582  0.00  0.00    +0.292 HD
ENDBRANCH  10  20
TORSDOF 3
ENDMDL
MODEL 6
REMARK VINA RESULT:    -6.262      8.776     11.014
REMARK INTER + INTRA:          -7.299
REMARK INTER:                  -7.002
REMARK INTRA:                  -0.297
REMARK UNBOUND:                -0.305
REMARK  Name = 5281607
REMARK  3 active torsions:
REMARK  status: ('A' for Active; 'I' for Inactive)
REMARK    1  A    between atoms: O_2  and  C_10
REMARK    2  A    between atoms: O_4  and  C_13
REMARK    3  A    between atoms: C_7  and  C_9
REMARK                            x       y       z     vdW  Elec       q    Type
REMARK                         _______ _______ _______ _____ _____    ______ ____
ROOT
ATOM      1  O   UNL     1       5.341 -13.631  60.210  0.00  0.00    -0.454 OA
ATOM      2  O   UNL     1       9.101 -14.139  58.733  0.00  0.00    -0.287 OA
ATOM      3  C   UNL     1       7.728 -13.808  60.673  0.00  0.00    +0.105 A 
ATOM      4  C   UNL     1       6.403 -13.630  61.083  0.00  0.00    +0.146 A 
ATOM      5  C   UNL     1       5.594 -13.887  58.878  0.00  0.00    +0.139 A 
ATOM      6  C   UNL     1       7.989 -14.014  59.232  0.00  0.00    +0.197 A 
ATOM      7  C   UNL     1       8.750 -13.800  61.639  0.00  0.00    +0.135 A 
ATOM      8  C   UNL     1       6.809 -14.079  58.355  0.00  0.00    +0.098 A 
ATOM      9  C   UNL     1       6.097 -13.440  62.433  0.00  0.00    +0.092 A 
ATOM     10  C   UNL     1       7.124 -13.448  63.375  0.00  0.00    +0.124 A 
ATOM     11  C   UNL     1       8.447 -13.623  62.991  0.00  0.00    +0.091 A 
ENDROOT
BRANCH   5  12
ATOM     12  C   UNL     1       4.400 -13.920  58.030  0.00  0.00    +0.017 A 
ATOM     13  C   UNL     1       3.202 -14.465  58.507  0.00  0.00    +0.011 A 
ATOM     14  C   UNL     1       4.442 -13.377  56.739  0.00  0.00    +0.011 A 
ATOM     15  C   UNL     1       2.050 -14.430  57.718  0.00  0.00    +0.001 A 
ATOM     16  C   UNL     1       3.288 -13.332  55.957  0.00  0.00    +0.001 A 
ATOM     17  C   UNL     1       2.090 -13.850  56.451  0.00  0.00    +0.000 A 
ENDBRANCH   5  12
BRANCH   7  18
ATOM     18  O   UNL     1      10.053 -13.974  61.273  0.00  0.00    -0.506 OA
ATOM     19  H   UNL     1      10.284 -13.402  60.525  0.00  0.00    +0.292 HD
ENDBRANCH   7  18
BRANCH  10  20
ATOM     20  O   UNL     1       6.781 -13.280  64.685  0.00  0.00    -0.507 OA
ATOM     21  H   UNL     1       6.149 -13.971  64.945  0.00  0.00    +0.292 HD
ENDBRANCH  10  20
TORSDOF 3
ENDMDL
MODEL 7
REMARK VINA RESULT:    -5.925      9.696     11.840
REMARK INTER + INTRA:          -6.922
REMARK INTER:                  -6.653
REMARK INTRA:                  -0.269
REMARK UNBOUND:                -0.305
REMARK  Name = 5281607
REMARK  3 active torsions:
REMARK  status: ('A' for Active; 'I' for Inactive)
REMARK    1  A    between atoms: O_2  and  C_10
REMARK    2  A    between atoms: O_4  and  C_13
REMARK    3  A    between atoms: C_7  and  C_9
REMARK                            x       y       z     vdW  Elec       q    Type
REMARK                         _______ _______ _______ _____ _____    ______ ____
ROOT
ATOM      1  O   UNL     1      26.314 -14.058  62.118  0.00  0.00    -0.454 OA
ATOM      2  O   UNL     1      27.031 -11.382  59.136  0.00  0.00    -0.287 OA
ATOM      3  C   UNL     1      27.846 -12.440  61.129  0.00  0.00    +0.105 A 
ATOM      4  C   UNL     1      27.504 -13.370  62.116  0.00  0.00    +0.146 A 
ATOM      5  C   UNL     1      25.450 -13.868  61.060  0.00  0.00    +0.139 A 
ATOM      6  C   UNL     1      26.880 -12.198  60.037  0.00  0.00    +0.197 A 
ATOM      7  C   UNL     1      29.090 -11.789  61.204  0.00  0.00    +0.135 A 
ATOM      8  C   UNL     1      25.655 -13.015  60.051  0.00  0.00    +0.098 A 
ATOM      9  C   UNL     1      28.383 -13.645  63.167  0.00  0.00    +0.092 A 
ATOM     10  C   UNL     1      29.616 -12.998  63.215  0.00  0.00    +0.124 A 
ATOM     11  C   UNL     1      29.977 -12.071  62.245  0.00  0.00    +0.091 A 
ENDROOT
BRANCH   5  12
ATOM     12  C   UNL     1      24.232 -14.679  61.119  0.00  0.00    +0.017 A 
ATOM     13  C   UNL     1      24.014 -15.707  60.194  0.00  0.00    +0.011 A 
ATOM     14  C   UNL     1      23.285 -14.448  62.125  0.00  0.00    +0.011 A 
ATOM     15  C   UNL     1      22.884 -16.520  60.300  0.00  0.00    +0.001 A 
ATOM     16  C   UNL     1      22.162 -15.269  62.236  0.00  0.00    +0.001 A 
ATOM     17  C   UNL     1      21.967 -16.310  61.329  0.00  0.00    +0.000 A 
ENDBRANCH   5  12
BRANCH   7  18
ATOM     18  O   UNL     1      29.455 -10.878  60.255  0.00  0.00    -0.506 OA
ATOM     19  H   UNL     1      30.419 -10.851  60.153  0.00  0.00    +0.292 HD
ENDBRANCH   7  18
BRANCH  10  20
ATOM     20  O   UNL     1      30.454 -13.310  64.245  0.00  0.00    -0.507 OA
ATOM     21  H   UNL     1      30.666 -14.258  64.214  0.00  0.00    +0.292 HD
ENDBRANCH  10  20
TORSDOF 3
ENDMDL
MODEL 8
REMARK VINA RESULT:    -5.890      8.384     10.945
REMARK INTER + INTRA:          -6.884
REMARK INTER:                  -6.587
REMARK INTRA:                  -0.297
REMARK UNBOUND:                -0.305
REMARK  Name = 5281607
REMARK  3 active torsions:
REMARK  status: ('A' for Active; 'I' for Inactive)
REMARK    1  A    between atoms: O_2  and  C_10
REMARK    2  A    between atoms: O_4  and  C_13
REMARK    3  A    between atoms: C_7  and  C_9
REMARK                            x       y       z     vdW  Elec       q    Type
REMARK                         _______ _______ _______ _____ _____    ______ ____
ROOT
ATOM      1  O   UNL     1       6.654 -14.624  58.136  0.00  0.00    -0.454 OA
ATOM      2  O   UNL     1       6.497 -13.789  62.118  0.00  0.00    -0.287 OA
ATOM      3  C   UNL     1       7.853 -14.453  60.253  0.00  0.00    +0.105 A 
ATOM      4  C   UNL     1       7.804 -14.730  58.883  0.00  0.00    +0.146 A 
ATOM      5  C   UNL     1       5.515 -14.159  58.759  0.00  0.00    +0.139 A 
ATOM      6  C   UNL     1       6.606 -14.020  60.920  0.00  0.00    +0.197 A 
ATOM      7  C   UNL     1       9.076 -14.581  60.934  0.00  0.00    +0.135 A 
ATOM      8  C   UNL     1       5.424 -13.854  60.058  0.00  0.00    +0.098 A 
ATOM      9  C   UNL     1       8.954 -15.134  58.199  0.00  0.00    +0.092 A 
ATOM     10  C   UNL     1      10.159 -15.243  58.891  0.00  0.00    +0.124 A 
ATOM     11  C   UNL     1      10.230 -14.973  60.252  0.00  0.00    +0.091 A 
ENDROOT
BRANCH   5  12
ATOM     12  C   UNL     1       4.353 -14.030  57.877  0.00  0.00    +0.017 A 
ATOM     13  C   UNL     1       3.079 -14.415  58.314  0.00  0.00    +0.011 A 
ATOM     14  C   UNL     1       4.505 -13.491  56.592  0.00  0.00    +0.011 A 
ATOM     15  C   UNL     1       1.967 -14.224  57.492  0.00  0.00    +0.001 A 
ATOM     16  C   UNL     1       3.390 -13.291  55.778  0.00  0.00    +0.001 A 
ATOM     17  C   UNL     1       2.120 -13.649  56.232  0.00  0.00    +0.000 A 
ENDBRANCH   5  12
BRANCH   7  18
ATOM     18  O   UNL     1       9.158 -14.316  62.270  0.00  0.00    -0.506 OA
ATOM     19  H   UNL     1       8.526 -14.853  62.771  0.00  0.00    +0.292 HD
ENDBRANCH   7  18
BRANCH  10  20
ATOM     20  O   UNL     1      11.262 -15.620  58.183  0.00  0.00    -0.507 OA
ATOM     21  H   UNL     1      11.719 -16.337  58.655  0.00  0.00    +0.292 HD
ENDBRANCH  10  20
TORSDOF 3
ENDMDL
MODEL 9
REMARK VINA RESULT:    -5.788      2.671      6.596
REMARK INTER + INTRA:          -6.769
REMARK INTER:                  -6.462
REMARK INTRA:                  -0.307
REMARK UNBOUND:                -0.305
REMARK  Name = 5281607
REMARK  3 active torsions:
REMARK  status: ('A' for Active; 'I' for Inactive)
REMARK    1  A    between atoms: O_2  and  C_10
REMARK    2  A    between atoms: O_4  and  C_13
REMARK    3  A    between atoms: C_7  and  C_9
REMARK                            x       y       z     vdW  Elec       q    Type
REMARK                         _______ _______ _______ _____ _____    ______ ____
ROOT
ATOM      1  O   UNL     1      17.125 -13.978  61.045  0.00  0.00    -0.454 OA
ATOM      2  O   UNL     1      16.905 -16.988  58.313  0.00  0.00    -0.287 OA
ATOM      3  C   UNL     1      17.703 -16.274  60.460  0.00  0.00    +0.105 A 
ATOM      4  C   UNL     1      17.734 -15.178  61.329  0.00  0.00    +0.146 A 
ATOM      5  C   UNL     1      16.396 -13.878  59.878  0.00  0.00    +0.139 A 
ATOM      6  C   UNL     1      16.974 -16.128  59.182  0.00  0.00    +0.197 A 
ATOM      7  C   UNL     1      18.348 -17.465  60.837  0.00  0.00    +0.135 A 
ATOM      8  C   UNL     1      16.282 -14.847  58.964  0.00  0.00    +0.098 A 
ATOM      9  C   UNL     1      18.400 -15.262  62.554  0.00  0.00    +0.092 A 
ATOM     10  C   UNL     1      19.022 -16.456  62.914  0.00  0.00    +0.124 A 
ATOM     11  C   UNL     1      19.004 -17.557  62.067  0.00  0.00    +0.091 A 
ENDROOT
BRANCH   5  12
ATOM     12  C   UNL     1      15.741 -12.583  59.683  0.00  0.00    +0.017 A 
ATOM     13  C   UNL     1      16.237 -11.432  60.308  0.00  0.00    +0.011 A 
ATOM     14  C   UNL     1      14.624 -12.482  58.843  0.00  0.00    +0.011 A 
ATOM     15  C   UNL     1      15.648 -10.190  60.061  0.00  0.00    +0.001 A 
ATOM     16  C   UNL     1      14.045 -11.239  58.589  0.00  0.00    +0.001 A 
ATOM     17  C   UNL     1      14.563 -10.092  59.191  0.00  0.00    +0.000 A 
ENDBRANCH   5  12
BRANCH   7  18
ATOM     18  O   UNL     1      18.334 -18.553  60.014  0.00  0.00    -0.506 OA
ATOM     19  H   UNL     1      17.447 -18.708  59.657  0.00  0.00    +0.292 HD
ENDBRANCH   7  18
BRANCH  10  20
ATOM     20  O   UNL     1      19.644 -16.504  64.127  0.00  0.00    -0.507 OA
ATOM     21  H   UNL     1      19.026 -16.212  64.819  0.00  0.00    +0.292 HD
ENDBRANCH  10  20
TORSDOF 3
ENDMDL
